9
 Atoms. Timestep: 500
Al  -0.002599   0.000834   0.000679
O   1.335787   0.224459  -1.118636
H  -0.786608  -1.644676  -1.493635
O  -0.876012   1.531092   0.031095
H   1.620650   1.111389  -1.303637
O   0.428827  -0.354029   1.668561
H   0.442328  -1.263566   1.941777
O  -0.896659  -1.397125  -0.583309
H  -1.262390   1.782961   0.861488
