       9
 i =        1, time =        0.900, E =      -546.0235706779
  O        -1.0132814800        -1.1189844400         0.9207266300
  H        -0.6221097900        -1.9175901100         1.0593401200
 Al         0.0023574200        -0.0060584700         0.0013439300
  H        -1.9502954100         0.6016754000        -1.0812807200
  O         1.1107043100        -1.0182910300        -0.9270794800
  O         1.0192435700         1.0993646900         0.9283625000
  H         0.5998035900         1.9432539000         1.0885959800
  O        -1.1049771500         1.0165873900        -0.9175488100
  H         1.9557295300        -0.5987141700        -1.0810175700
       9
 i =        2, time =        0.950, E =      -546.0281061881
  O        -1.0198874700        -1.1098856500         0.9202077100
  H        -0.6096177700        -1.9537990000         1.0684946800
 Al        -0.0000440400        -0.0011199300         0.0004763800
  H        -1.9496058900         0.6101835100        -1.0856835600
  O         1.1067980100        -1.0177530000        -0.9249086000
  O         1.0185782800         1.1029896800         0.9271509600
  H         0.6012016100         1.9482442700         1.0855278600
  O        -1.1033963800         1.0230722400        -0.9214608700
  H         1.9531482400        -0.6006889900        -1.0783620000
       9
 i =        3, time =        1.000, E =      -546.0273655120
  O        -1.0264920000        -1.1007888800         0.9196889100
  H        -0.5971285300        -1.9899998700         1.0776472300
 Al        -0.0024449700         0.0038175300        -0.0003909700
  H        -1.9489165100         0.6186897300        -1.0900854200
  O         1.1028925800        -1.0172150800        -0.9227382000
  O         1.0179131300         1.1066138800         0.9259396900
  H         0.6025993200         1.9532335500         1.0824604300
  O        -1.1018159600         1.0295556600        -0.9253720700
  H         1.9505675200        -0.6026633600        -1.0757070300
       9
 i =        4, time =        1.050, E =      -546.0229311163
  O        -1.0330953000        -1.0916938300         0.9191702200
  H        -0.5846415800        -2.0261938100         1.0867979700
 Al        -0.0048454500         0.0087540400        -0.0012581500
  H        -1.9482272800         0.6271943500        -1.0944864500
  O         1.0989878800        -1.0166773000        -0.9205681900
  O         1.0172481000         1.1102373800         0.9247286600
  H         0.6039967700         1.9582218700         1.0793935800
  O        -1.1002358400         1.0360378400        -0.9292825300
  H         1.9479872900        -0.6046374000        -1.0730525400
       9
 i =        5, time =        1.100, E =      -546.0159952979
  O        -1.0404779800        -1.0825181200         0.9190996200
  H        -0.5702201500        -2.0613557600         1.0944120800
 Al        -0.0075628000         0.0135647000        -0.0018829700
  H        -1.9477880300         0.6359899600        -1.0989255200
  O         1.0948454000        -1.0167439600        -0.9179451600
  O         1.0164389500         1.1137233000         0.9236488500
  H         0.6053356900         1.9632875300         1.0762793200
  O        -1.0987609700         1.0426777500        -0.9332563700
  H         1.9453644900        -0.6073822600        -1.0699872800
       9
 i =        6, time =        1.150, E =      -546.0073002459
  O        -1.0467564100        -1.0734587700         0.9183952200
  H        -0.5585385800        -2.0979687600         1.1041978600
 Al        -0.0098312800         0.0185521800        -0.0028504600
  H        -1.9469952900         0.6443717900        -1.1033096800
  O         1.0910402700        -1.0159556200        -0.9159635800
  O         1.0158338600         1.1174029600         0.9223837000
  H         0.6067570600         1.9682425500         1.0732328900
  O        -1.0971376000         1.0490929300        -0.9371395700
  H         1.9428025500        -0.6090361100        -1.0675038000
       9
 i =        7, time =        1.200, E =      -545.9975335017
  O        -1.0530328200        -1.0644022300         0.9176909900
  H        -0.5468608600        -2.1345705700         1.1139807900
 Al        -0.0120990100         0.0235381400        -0.0038176700
  H        -1.9462027700         0.6527510000        -1.1076924900
  O         1.0872363600        -1.0151674500        -0.9139826600
  O         1.0152289800         1.1210815000         0.9211189200
  H         0.6081780000         1.9731960300         1.0701874100
  O        -1.0955147100         1.0555061000        -0.9410215800
  H         1.9402414100        -0.6106893700        -1.0650211400
       9
 i =        8, time =        1.250, E =      -545.9872048221
  O        -1.0593074900        -1.0553481600         0.9169869400
  H        -0.5351863700        -2.1711624400         1.1237611000
 Al        -0.0143661200         0.0285227400        -0.0047846300
  H        -1.9454104600         0.6611279100        -1.1120741000
  O         1.0834334900        -1.0143794800        -0.9120023000
  O         1.0146242700         1.1247590500         0.9198544800
  H         0.6095985500         1.9781481700         1.0671427600
  O        -1.0938922600         1.0619175300        -0.9449025200
  H         1.9376809800        -0.6123421600        -1.0625391700
       9
 i =        9, time =        1.300, E =      -545.9766108655
  O        -1.0655806800        -1.0462962700         0.9162830800
  H        -0.5235146300        -2.2077454700         1.1335390100
 Al        -0.0166327000         0.0335061300        -0.0057513400
  H        -1.9446183500         0.6695028200        -1.1164546600
  O         1.0796315300        -1.0135917200        -0.9100223900
  O         1.0140196900         1.1284357000         0.9185903500
  H         0.6110187600         1.9830991100         1.0640988400
  O        -1.0922702100         1.0683274200        -0.9487825400
  H         1.9351211600        -0.6139945700        -1.0600577800
       9
 i =       10, time =        1.350, E =      -545.9658341938
  O        -1.0718526000        -1.0372463000         0.9155794000
  H        -0.5118452100        -2.2443205900         1.1433147000
 Al        -0.0188988100         0.0384884500        -0.0067178300
  H        -1.9438264200         0.6778759700        -1.1208342800
  O         1.0758303600        -1.0128041800        -0.9080428700
  O         1.0134152400         1.1321115500         0.9173265100
  H         0.6124386700         1.9880490000         1.0610555700
  O        -1.0906485100         1.0747359500        -0.9526617300
  H         1.9325618700        -0.6156467000        -1.0575768800
