112
 i =       86, time =     -835.958, E =         0.0000000000
Al         1.5100000000         2.6950000000         9.6560000000
Al         2.9760000000         0.1260000000         9.6500000000
O         1.6730000000         1.1190000000         8.5830000000
O         5.9360000000         3.3010000000         8.6580000000
O         4.4830000000         0.6790000000         8.6530000000
O        -0.0660000000         3.2240000000         8.6490000000
O         2.7510000000         3.6090000000         8.6590000000
O         7.2580000000         0.7470000000         8.6610000000
H         0.8030000000         0.7080000000         8.4630000000
H         5.1020000000         2.7920000000         8.6700000000
H         4.5240000000         0.5410000000         7.6830000000
H         8.3660000000         4.1610000000         8.5780000000
H         2.7670000000         3.6230000000         7.6760000000
H         7.1860000000         0.8210000000         7.6800000000
Al         3.3140000000         0.1540000000         4.8600000000
Al         1.8630000000         2.6290000000         4.8780000000
O         3.1670000000         3.6090000000         5.9510000000
O         7.5400000000         0.7550000000         5.8660000000
O         0.3510000000         3.1540000000         5.8730000000
O         4.8570000000         0.6720000000         5.8770000000
O         2.0900000000         1.0600000000         5.8740000000
O         6.2340000000         3.2350000000         5.8010000000
H         4.0430000000         3.2070000000         6.0520000000
H         8.3710000000         0.2370000000         5.8550000000
H         0.2950000000         3.0310000000         6.8450000000
H         5.1220000000         1.6110000000         5.9170000000
H         2.0840000000         1.0930000000         6.8570000000
H         6.3090000000         3.3260000000         6.7800000000
Al         8.0080000000         2.3770000000         0.0120000000
Al         6.5580000000         4.9400000000         0.0190000000
O         7.8300000000         3.9690000000         1.0880000000
O         3.6050000000         1.7360000000         1.0100000000
O         5.0670000000         4.3540000000         1.0140000000
O         0.8720000000         1.8680000000         1.0210000000
O         6.8090000000         1.4260000000         1.0220000000
O         2.2470000000         4.3430000000         1.0060000000
H         8.7000000000         4.3800000000         1.2050000000
H         4.4410000000         2.2420000000         0.9950000000
H         5.0280000000         4.5200000000         1.9790000000
H         1.1210000000         0.9270000000         1.0840000000
H         6.7820000000         1.4100000000         2.0050000000
H         2.3270000000         4.2550000000         1.9830000000
Al         6.2460000000         4.9050000000         4.7880000000
Al         7.6910000000         2.3830000000         4.8040000000
O         6.3910000000         1.4240000000         3.7180000000
O         1.9560000000         4.2740000000         3.8660000000
O         0.5060000000         1.8080000000         3.8040000000
O         4.6510000000         4.4140000000         3.7860000000
O         7.4700000000         3.9660000000         3.7930000000
O         3.3270000000         1.8010000000         3.8610000000
H         5.5240000000         1.8500000000         3.6260000000
H         1.1130000000         4.7660000000         3.8650000000
H         0.5430000000         1.9760000000         2.8390000000
H         4.3990000000         3.4720000000         3.7310000000
H         7.4710000000         3.9370000000         2.8080000000
H         3.2420000000         1.7060000000         2.8840000000
Al         1.5150000000         7.7460000000         9.6450000000
Al         2.9790000000         5.1840000000         9.6500000000
O         1.6770000000         6.1510000000         8.5820000000
O         5.9420000000         8.3860000000         8.6570000000
O         4.4810000000         5.7680000000         8.6540000000
O        -0.0600000000         8.2480000000         8.5900000000
O         2.7460000000         8.6920000000         8.6530000000
O         7.2550000000         5.7780000000         8.6560000000
H         0.8090000000         5.7380000000         8.4650000000
H         5.1040000000         7.8850000000         8.6680000000
H         4.5260000000         5.6030000000         7.6890000000
H         8.3820000000         9.1900000000         8.5440000000
H         2.7740000000         8.7130000000         7.6700000000
H         7.1860000000         5.8610000000         7.6780000000
Al         3.3180000000         5.2170000000         4.8800000000
Al         1.8610000000         7.7370000000         4.8660000000
O         3.1620000000         8.6960000000         5.9480000000
O         7.6060000000         5.8470000000         5.8020000000
O         0.3550000000         8.3130000000         5.8630000000
O         4.9120000000         5.7070000000         5.8810000000
O         2.0920000000         6.1540000000         5.8750000000
O         6.2320000000         8.3200000000         5.8050000000
H         4.0320000000         8.2770000000         6.0310000000
H         8.4490000000         5.3560000000         5.8050000000
H         0.3040000000         8.1440000000         6.8290000000
H         5.1610000000         6.6500000000         5.9370000000
H         2.0720000000         6.1790000000         6.8580000000
H         6.3140000000         8.4190000000         6.7820000000
Al         8.0190000000         7.4290000000        -0.0010000000
Al         6.5740000000         9.9970000000         0.0220000000
O         7.8850000000         9.0020000000         1.0820000000
O         3.6120000000         6.8190000000         1.0060000000
O         5.0710000000         9.4420000000         1.0180000000
O         0.8750000000         6.9000000000         1.0110000000
O         6.8030000000         6.5120000000         1.0110000000
O         2.2440000000         9.3740000000         1.0010000000
H         8.7600000000         9.4040000000         1.1930000000
H         4.4440000000         7.3320000000         0.9840000000
H         5.0250000000         9.5790000000         1.9880000000
H         1.1410000000         5.9620000000         1.0670000000
H         6.7920000000         6.5010000000         1.9940000000
H         2.3100000000         9.2960000000         1.9830000000
Al         6.2130000000         9.9640000000         4.8000000000
Al         7.6980000000         7.4940000000         4.7890000000
O         6.3960000000         6.5130000000         3.7170000000
O         1.9680000000         9.3650000000         3.8040000000
O         0.5110000000         6.9640000000         3.7940000000
O         4.6510000000         9.4470000000         3.7880000000
O         7.4660000000         9.0650000000         3.7940000000
O         3.3280000000         6.8880000000         3.8660000000
H         5.5210000000         6.9170000000         3.6160000000
H         1.1320000000         9.8730000000         3.8320000000
H         0.5590000000         7.0900000000         2.8220000000
H         4.3940000000         8.5040000000         3.7430000000
H         7.4800000000         9.0310000000         2.8110000000
H         3.2490000000         6.7910000000         2.8880000000
