       3
 i =      240, E =       -63.8851509339
  H         3.9719730484        4.0758642517        5.0408171452
  O         4.9237905603        4.1948813786        4.9360921195
 Na         5.9641707658        5.6968388781        4.0343860040
