       3
 i =       13, E =       -17.2503252548
  O         4.7336003471        5.3332260936        5.0670579135
  H         5.5240262384        4.9929839950        5.5127443435
  H         4.4765678365        4.6198771085        4.4636792001
