ITEM: TIMESTEP
0
ITEM: NUMBER OF ATOMS
110
ITEM: BOX BOUNDS pp pp pp
0 10.499681
0 10.499681
0 10.499681
ITEM: ATOMS id type x y z
1 4 -0.0133180010 4.1989026215 1.4770990648
2 4 3.7597423019 0.5253335722 0.0186626957
3 2 3.7669098754 -0.7566332158 2.8438781726
4 3 3.0131967884 -0.2117284160 2.5489866499
5 3 4.4235476230 -0.2615861596 3.3788302559
6 2 0.9446008397 6.6056412981 11.5366085959
7 3 1.4339269403 6.8002888419 12.4383700065
8 3 1.5498413608 6.8416871653 10.8447400859
9 2 -3.2713371733 -3.3036606432 5.8020369888
10 3 -2.9049255331 -3.8045518300 6.5020975640
11 3 -2.5917308266 -3.0183714024 5.1029064635
12 2 2.5005252598 6.9582922812 3.6716070143
13 3 3.0782817402 6.2081702604 3.3853166636
14 3 2.9210245760 7.8498481143 3.6050702702
15 2 -4.2742920070 6.5961502105 2.3486603412
16 3 -5.2323334118 6.4574301652 2.4617274987
17 3 -4.1400620143 7.5727356654 2.4712139678
18 2 4.4899814021 1.6484479188 8.4639314164
19 3 4.7330258644 2.5416701060 8.1178521580
20 3 4.9656303258 1.1227973475 7.7993373678
21 2 -2.7273847366 7.7205265007 9.3888096012
22 3 -1.7800083882 7.4832723211 9.2661204051
23 3 -2.8186766010 7.4606850165 10.3152799298
24 2 5.1105462432 4.4657619432 8.2335014969
25 3 4.5734080725 5.0347616477 7.6475419347
26 3 4.8428002231 4.7450242048 9.0991064685
27 2 3.7738585313 3.2109867547 5.6175130741
28 3 4.1262493480 4.0371397056 6.0132736870
29 3 4.4058020096 2.4207805313 5.4957511315
30 2 -1.3049241189 2.2068151017 6.2186156921
31 3 -0.3550401969 1.9167822627 6.1289631619
32 3 -1.6027246249 1.5923367783 7.0047913848
33 2 2.3276554249 7.6035670045 -3.1321098811
34 3 2.7572631975 7.2948842131 -2.3012235305
35 3 2.9358407092 7.4253163173 -3.8597392333
36 2 2.2568565991 -0.4331645667 8.6033782049
37 3 1.2939283567 -0.3727372232 8.9169391688
38 3 2.3511942505 -1.3208803349 8.0952530397
39 2 1.5564663820 1.6056863194 6.7613287402
40 3 2.3365392996 2.0410728250 6.3520073522
41 3 2.0090603903 0.9261145249 7.3462955886
42 2 -4.2592847277 9.7196525583 -3.6118537610
43 3 -3.8604048330 9.0125718859 -4.1752134816
44 3 -3.5376173226 10.2352232576 -3.1547729421
45 2 -5.9293916873 -4.3660110612 5.8602889304
46 3 -6.3752670236 -4.3336862881 4.9911133085
47 3 -5.0058445863 -4.1485861515 5.6795054763
48 2 7.8208360204 4.7928325238 7.2661814907
49 3 7.9734528339 3.8230344089 7.1344730122
50 3 6.9453518211 4.8184332956 7.6907134706
51 2 7.4723258997 2.0617546486 3.7365078142
52 3 7.6263162333 3.0235793309 3.5785958850
53 3 8.1638033729 2.0240521797 4.4473958037
54 2 -3.3203828614 1.8411789854 0.6277099488
55 3 -2.4541474497 1.7179387051 1.0152542712
56 3 -3.9145915858 2.3035299278 1.2135124251
57 2 5.3606898745 9.3438619504 -0.6264172141
58 3 6.1257917641 9.0943352280 -0.0234546323
59 3 5.7454398324 8.9408900714 -1.4174798755
60 2 7.8695640859 4.7372567777 3.6476800363
61 3 7.6392753401 5.5189956538 4.2076185671
62 3 7.5686798188 5.0400099337 2.7845513836
63 2 10.9402375522 4.8399612758 14.2164957610
64 3 11.2811803147 5.6659559857 14.5436953201
65 3 10.0794777851 4.6285793100 14.7331454754
66 2 1.3622105450 9.5037571172 5.0386664592
67 3 1.9848441855 9.6305804849 4.3338873651
68 3 1.3187204107 10.2565697651 5.6174552024
69 2 7.9387505560 11.5590889723 8.5536170630
70 3 7.3043656067 11.8451999300 9.2782496642
71 3 8.6105646476 10.9858246670 9.0637008222
72 2 18.7897609133 4.3136610099 0.3641052546
73 3 18.8920571204 4.7081628405 -0.5053946272
74 3 18.3121098869 3.4647275467 0.2531237809
75 2 -0.9646300747 -2.6752680072 4.3217394143
76 3 -0.9663477982 -2.1175210440 3.4851747191
77 3 -0.3288895472 -2.1517273943 4.8340987071
78 2 7.1106849324 9.3867181152 1.7044980706
79 3 8.0874473335 9.2635577754 1.7729044805
80 3 6.9755366014 10.3622276642 1.4142233491
81 2 3.3488794776 7.0213680823 -0.7217199317
82 3 3.8910668231 6.2830654901 -0.2783802710
83 3 3.8314254166 7.8359719057 -0.5633038631
84 2 0.6864810871 14.0154930344 8.9622635076
85 3 0.8858175775 13.5143218187 8.1505148513
86 3 0.5978268133 14.9470389177 8.6483689400
87 2 -0.1529018485 6.3124288830 8.4498578635
88 3 -0.6955110729 5.9261775432 7.7433054136
89 3 0.5787361204 6.7427807653 7.9882066972
90 2 5.2311893609 1.0304355675 4.7162461221
91 3 6.0976368106 1.2990795709 4.3701106821
92 3 5.4963639406 0.3879252698 5.4532244700
93 1 0.1346659958 0.2585363666 1.1249816915
94 1 3.8076442199 3.7815318417 1.5588900263
95 2 -0.8107946479 1.6811894140 1.7207241558
96 3 -1.1005779643 1.4877675589 2.6588667589
97 2 0.0071464151 0.2040433023 -0.6610186837
98 3 0.2034651369 1.0705382471 -0.9948498690
99 2 -0.6370597235 -1.1777171297 1.8829984674
100 3 -0.4961731178 -2.0562618791 1.4795549686
101 2 1.7815699575 0.5283533389 1.7156357345
102 3 1.9714990427 1.4699276240 1.5916632260
103 2 4.5872451541 4.8124920663 0.3472939092
104 3 5.4988066565 4.9443497193 0.7325962106
105 2 2.2363867045 3.2182166693 1.0040312207
106 3 1.9513479452 3.1823176454 0.0389073116
107 2 3.7944775404 4.6894197742 3.0970439246
108 3 3.6550068691 4.2153552368 3.9415911032
109 2 4.8321744275 2.4025071260 1.8065043158
110 3 4.8338667445 2.2111939295 2.7430210428
ITEM: TIMESTEP
1
ITEM: NUMBER OF ATOMS
110
ITEM: BOX BOUNDS pp pp pp
0 10.476649
0 10.476649
0 10.476649
ITEM: ATOMS id type x y z
1 4 0.0127237392 4.2065274073 1.4796003270
2 4 3.6278039818 0.4045228807 0.0723123754
3 2 3.3184231857 -1.0896672987 2.9026728433
4 3 2.5209334101 -0.4740742046 2.5312996323
5 3 4.0014082459 -0.4275526632 3.1786955358
6 2 0.8021526298 6.7993108804 11.6359954782
7 3 1.3392617988 6.7374996676 12.4180535159
8 3 1.4464279286 7.0437543793 10.9131756907
9 2 -3.2536574004 -3.3636262345 5.7318730218
10 3 -2.7998624991 -4.2070715045 6.0844154776
11 3 -2.4650207523 -2.8108685242 5.5193797572
12 2 2.4415856505 6.9031479094 3.5714539960
13 3 2.9297114857 6.0472534941 3.4063141529
14 3 3.0381238430 7.6656907949 3.2156742948
15 2 -4.7695620603 6.5100917750 2.4965745638
16 3 -5.4889604653 5.9669534121 2.9336873167
17 3 -4.9193210534 7.4877426222 2.5169297548
18 2 4.4972620273 1.8997125029 8.7628867630
19 3 4.8504023231 2.7134181574 8.4724895869
20 3 3.8801320411 1.4984582660 8.1331504596
21 2 -2.7807740520 7.4767407999 9.3023050806
22 3 -1.8953743775 7.5111268104 8.8892131049
23 3 -2.5891221916 7.2484866141 10.2251172073
24 2 5.8817672856 4.3708029152 8.2374700902
25 3 5.3545899382 5.1024936394 7.8863293138
26 3 5.7558502844 4.5147452099 9.1649338926
27 2 3.5106692049 2.8865383683 5.4219660641
28 3 4.1243001889 3.3479427419 6.0405069065
29 3 4.0500939692 2.1258722631 5.0482487667
30 2 -1.4217588111 1.7709174545 6.7676370402
31 3 -0.4945407434 1.5122118423 6.6738578101
32 3 -1.7845116512 1.1806731013 7.4673523366
33 2 1.5206302418 7.8753297849 -3.3235116538
34 3 2.3801147425 7.4199907067 -3.2610236714
35 3 1.7139173117 8.5796802167 -3.9966520396
36 2 1.9919349339 0.1426306584 8.7121662778
37 3 1.0981093539 0.2724866543 9.1924520775
38 3 1.9009921196 -0.7832328881 8.3496563267
39 2 1.3095279601 1.7237812370 6.5854118869
40 3 2.0033793181 2.4165190437 6.3426472438
41 3 1.7318044742 1.1432158224 7.2617534311
42 2 -5.0048784324 9.6120676446 -3.5386063581
43 3 -5.2770908377 8.6932985073 -3.6018076262
44 3 -4.0697154651 9.5920022350 -3.1804155561
45 2 -5.9767286637 -4.0632842778 6.2093389305
46 3 -6.7140915757 -4.1119200147 5.5730732334
47 3 -5.1313073045 -3.8397388939 5.7177163238
48 2 8.5654996054 4.6492164587 7.0963646543
49 3 8.6910969700 3.8319643199 6.6072946269
50 3 7.7663652395 4.3633432694 7.6009205772
51 2 7.6882258976 1.7037734677 4.2636830372
52 3 7.4451593363 2.5812518124 3.9353177491
53 3 8.0014187287 1.9219307013 5.1398867374
54 2 -3.2515188108 2.1213531221 0.1309681903
55 3 -2.7766662027 1.8968935310 0.9251743062
56 3 -4.1657208124 2.3424551745 0.3964014791
57 2 5.4228820624 9.0897593216 0.1945990648
58 3 6.0715685198 8.9617376841 0.9613384249
59 3 6.0177660344 8.9633364402 -0.5689679775
60 2 7.8498255201 4.8640524737 3.4849952732
61 3 7.4811267727 5.3130448506 4.2461210669
62 3 7.3490228925 5.3004649745 2.7340611887
63 2 10.8447311999 4.8323251417 14.5487779591
64 3 11.4546316347 5.6133679809 14.5996464460
65 3 9.9538644346 5.1661271712 14.4959129647
66 2 1.6695834771 9.7550755284 5.3012624160
67 3 2.3074210135 9.5861748261 4.5061576093
68 3 1.5172063906 10.7152947448 5.3089600756
69 2 7.8065790673 10.5714749343 8.5308398633
70 3 7.2486646886 11.0863979938 9.1901550452
71 3 8.5691713488 10.2680558948 9.0778904419
72 2 18.7149647195 4.8922362116 0.3906828747
73 3 18.7729572606 5.4118913995 -0.4420395016
74 3 17.9705635664 4.1630950249 0.1716374071
75 2 -0.9869409559 -2.4607315295 4.5040310955
76 3 -0.9289628792 -2.0668727153 3.6314388067
77 3 -0.2444376883 -1.9800840426 4.9564394657
78 2 7.3566796931 9.3148700539 2.4207455638
79 3 8.2553977285 9.2463047446 1.9753412041
80 3 7.1640882854 10.2815307701 2.6591956420
81 2 3.4877673042 7.1045015897 -0.3685272925
82 3 3.7739012769 6.2745835020 -0.0308385429
83 3 4.1406081788 7.7896345315 -0.0664272918
84 2 1.0225423680 14.0815089605 8.9230748625
85 3 0.8377376381 13.5316268261 8.1041298180
86 3 0.5070883595 14.9465073563 8.9225332598
87 2 -0.1999588081 6.0389133045 8.6757760446
88 3 -0.7446057442 5.5059146581 8.0078100491
89 3 0.3405534255 6.6898334044 8.1653391361
90 2 5.1021943377 0.7596249070 4.5492787536
91 3 6.0465277703 1.0711512024 4.5370525459
92 3 5.1189790718 0.0991651719 5.3071305312
93 1 0.0410391130 0.5479870760 1.2517459241
94 1 3.8211038908 3.7773342225 1.4951103192
95 2 -0.9463016340 1.8732598565 1.8921404350
96 3 -1.1416095226 1.7602892206 2.8254527242
97 2 -0.0681694346 0.8578893166 -0.5202349219
98 3 -0.0458230867 1.8186268565 -0.6680113015
99 2 -0.5455581841 -1.0371656926 1.7204799159
100 3 -0.0308192454 -1.7857394569 1.4234179932
101 2 1.7159303000 0.4753827345 1.7884415566
102 3 2.0696677020 1.3442958661 1.8952751163
103 2 4.9860739506 4.5715326760 0.3701064190
104 3 5.4661868261 5.2876262441 0.7292590089
105 2 2.1952939684 3.4000770916 0.9054526789
106 3 2.0579441536 3.5436711833 -0.0487787420
107 2 3.7975289485 4.6188832948 3.0762296085
108 3 3.4853241175 4.0123673457 3.7759586938
109 2 4.4666392241 2.1192034638 1.7432091974
110 3 4.8562807078 1.9890996902 2.5945532973
ITEM: TIMESTEP
2
ITEM: NUMBER OF ATOMS
110
ITEM: BOX BOUNDS pp pp pp
0 10.462357
0 10.462357
0 10.462357
ITEM: ATOMS id type x y z
1 4 -0.0040065397 4.1739694956 1.4707107673
2 4 4.0428259400 0.2224268996 0.0487755012
3 2 3.4628736236 -0.6030877156 3.0243349395
4 3 2.5326292604 -0.1849501642 2.7590831114
5 3 3.9030314642 -0.0475904648 3.7153079513
6 2 0.5453177629 6.7644444527 11.9784345737
7 3 0.6005280704 7.1773052726 12.9306962062
8 3 1.3997587543 6.9073529347 11.5373358889
9 2 -3.0889572676 -3.3065631734 6.4234258152
10 3 -2.8794273496 -4.2117441233 6.2273540773
11 3 -2.2964389418 -2.8961094654 5.8707734697
12 2 2.7555930662 6.5907552480 4.0063684676
13 3 3.0945252702 5.8105925555 3.4468231529
14 3 3.0611260322 7.2705344152 3.4399171928
15 2 -4.4809283752 6.3690863301 2.8700608695
16 3 -5.1652835841 5.8119216953 3.3074777902
17 3 -4.3047405720 7.1434032217 3.4775036550
18 2 4.4905863855 1.8828371682 8.5028035364
19 3 4.9618819870 2.6759480206 8.1579669482
20 3 3.9206269353 1.5678709007 7.7798575816
21 2 -2.8916551353 7.0701375266 10.0449833781
22 3 -3.7613729234 6.8516964129 9.6982851152
23 3 -2.1724435427 6.7165678241 9.4219187126
24 2 5.5021090666 4.6421450579 8.0498747841
25 3 4.8805696652 5.2699788506 7.6066065492
26 3 5.5129019725 4.8129249443 9.0364087170
27 2 3.9114885359 3.2604095896 5.5365228292
28 3 4.3419100568 4.0408190532 5.8924203016
29 3 4.5852002355 2.5193113649 5.5022243197
30 2 -1.4643118175 1.5173225731 6.7987907549
31 3 -0.4998716310 1.4157344093 6.7393530430
32 3 -1.8459145498 0.7523564193 7.3189229214
33 2 1.6363489300 8.1453136242 -2.7808476713
34 3 2.4072925366 7.6355921414 -2.4878216083
35 3 1.7087445039 8.4795727469 -3.7015604798
36 2 2.2005397967 0.1909333600 8.8425950785
37 3 1.3124564989 0.3092647652 9.2856715687
38 3 2.2882060906 -0.7361125642 8.5686498339
39 2 1.4358692327 1.6016532742 6.6697383623
40 3 2.1880948864 2.1505601517 6.2315936583
41 3 1.8105255541 0.9918394680 7.4144419917
42 2 -5.3173664691 9.5577811297 -3.0619331413
43 3 -5.2876792114 8.6556373194 -3.4775763900
44 3 -4.4666286026 9.5464037370 -2.5817158219
45 2 -6.0784218013 -4.0126790528 6.3803121658
46 3 -6.4607900391 -3.6964168102 5.5194334613
47 3 -5.0854467378 -3.7077482024 6.3232134286
48 2 8.0894949459 4.4601115897 7.0457660723
49 3 8.5199091497 3.5617534553 7.1794161261
50 3 7.1774409581 4.3420151278 7.3797995544
51 2 7.5237075860 1.8290142387 4.3985010626
52 3 7.4659757082 2.6788822303 3.9046821877
53 3 8.0486791403 1.9670014833 5.2889542987
54 2 -3.1910259112 2.1655577601 -0.0455527431
55 3 -2.5834792842 1.8291007182 0.6243393471
56 3 -4.0413439422 2.2185596906 0.4462069973
57 2 5.3377593653 8.7679372949 0.4247337143
58 3 5.6829177520 8.5560214657 1.2773858515
59 3 6.1230176243 8.8169492853 -0.1486256057
60 2 7.6895820588 4.4368705719 3.4886747083
61 3 7.0388735117 5.1778114858 3.5464708427
62 3 7.8675248538 4.4353597889 2.5267180210
63 2 10.5647756143 4.5154561006 14.5783522925
64 3 11.1030938552 5.2866554795 14.8098798767
65 3 9.6773751309 4.8343530771 14.8570316139
66 2 1.3133727184 9.3765772661 5.1865769308
67 3 2.0989854529 9.4900127728 4.5516273615
68 3 1.1258699089 10.3032458906 5.4808511764
69 2 7.4864280704 10.2513094973 8.8756799717
70 3 7.3871168780 11.1955618262 9.1506872296
71 3 8.1493855665 9.8773267609 9.4815706955
72 2 18.5825336746 4.5169564999 0.7620785913
73 3 18.0740519072 5.3311618001 0.4240611660
74 3 18.1505292236 3.7587072183 0.1571233580
75 2 -0.8621904839 -2.6567262700 4.3291414030
76 3 -1.2755652869 -2.0794958605 3.6116019779
77 3 -0.1499384294 -2.1278674187 4.7163131786
78 2 6.7684662436 9.1952487087 2.9311043588
79 3 7.6354413270 9.4672443147 2.5518199567
80 3 6.5327112015 9.9566809796 3.4448377367
81 2 3.0505577885 6.8813718934 -0.2391708391
82 3 3.4898565777 6.0315573696 -0.2243150948
83 3 3.7419904789 7.4343327509 0.1234136743
84 2 0.5620000788 14.0589460136 8.8382246655
85 3 0.8539649261 13.5351037686 8.0873655847
86 3 0.1622916541 14.9078986778 8.5241561569
87 2 -0.4509328901 6.3543529513 8.1887505897
88 3 -1.0407249325 6.2333233942 7.4319468369
89 3 0.2136933065 7.0143794143 7.8814656133
90 2 5.2227508797 0.7833239182 5.0858041133
91 3 6.1566036754 1.0796047007 4.8257067774
92 3 5.2363658884 0.2472404640 5.9167176407
93 1 -0.3123512767 0.5836081265 1.1693436844
94 1 3.9938509148 3.6203121738 1.3120637026
95 2 -1.3387345579 1.8201437207 1.8005533448
96 3 -1.5505945850 1.9158745061 2.7970452369
97 2 -0.3572136677 0.6901317548 -0.5361064915
98 3 -0.6335180124 1.4581899832 -1.0931163637
99 2 -0.9501756265 -0.9809202442 1.6939821218
100 3 -0.4477922305 -1.8014903285 1.4283919467
101 2 1.4349661474 0.5171477846 1.7168930285
102 3 1.9373535397 1.3550042388 1.5077324959
103 2 4.9019501615 4.7340080217 0.2931614309
104 3 5.5811523199 5.2500314987 0.8424245957
105 2 2.4011966277 3.1965034993 0.6126983232
106 3 2.3052611771 3.1306580018 -0.3786578405
107 2 3.9613423528 4.4200900347 2.8797706166
108 3 3.9250706800 3.8761908497 3.6930437347
109 2 5.0222103611 2.1371367346 1.3786010379
110 3 5.2903448282 1.6394066719 2.1369423016
ITEM: TIMESTEP
3
ITEM: NUMBER OF ATOMS
110
ITEM: BOX BOUNDS pp pp pp
0 10.452746
0 10.452746
0 10.452746
ITEM: ATOMS id type x y z
1 4 0.0130211259 4.1792166911 1.4579283134
2 4 3.9186752743 0.6814620662 0.1055954349
3 2 3.0729773666 -0.9943986749 3.1344403120
4 3 2.3843633515 -0.4035846283 2.5372091434
5 3 3.6354000701 -0.3476060892 3.6315444670
6 2 0.4661109825 6.5907734219 11.9357769846
7 3 0.7051395415 6.8046984237 12.8092964880
8 3 1.3084203773 6.8775686843 11.4587123124
9 2 -3.0214275649 -3.7535655527 6.3878253814
10 3 -3.0554504253 -4.6320273483 5.8797710657
11 3 -2.5509255803 -3.1481072316 5.8249964497
12 2 2.5457216716 7.0728140334 3.9452651012
13 3 2.9070066264 6.3829800010 3.3646215416
14 3 2.8135599359 7.9914218894 3.5538795387
15 2 -4.6656144199 6.2217568893 3.8321830419
16 3 -5.5045814558 5.8469472407 3.4546914901
17 3 -4.4926152295 7.0836691394 3.4524221478
18 2 5.1418918217 1.7938420154 8.5957165248
19 3 5.0792258842 2.7880851578 8.5962134134
20 3 4.6580830636 1.5374823102 7.7695707078
21 2 -3.0153984143 6.8061077422 9.4345160986
22 3 -2.9969651264 6.9876889590 8.4658991285
23 3 -2.1198689982 7.0921450315 9.6177838206
24 2 4.7290494572 4.6364245344 8.0868139551
25 3 4.8597497615 5.4617948945 7.5838528721
26 3 4.4357445630 4.8793327135 8.9621545996
27 2 3.7501516988 3.0916788150 5.5261590088
28 3 4.2398447324 3.4561740389 6.2807925364
29 3 4.2036516902 2.1965083209 5.3581021750
30 2 -1.2922081557 1.4089237427 6.5292688615
31 3 -0.2918891430 1.5767038504 6.5161356265
32 3 -1.4744853080 0.8830286400 7.3426609118
33 2 1.8888353470 7.6050475136 -2.7090656039
34 3 2.7203904390 7.1688216437 -2.4317261140
35 3 2.0603935564 8.0480724287 -3.5578257012
36 2 2.1536660029 -0.0909714097 8.7984507943
37 3 1.2749098686 -0.2640978414 9.2604242034
38 3 2.5304024935 -0.9797494673 8.5664413004
39 2 1.4542707158 1.8053311496 6.7822216030
40 3 2.2045669668 2.2729062155 6.3469365821
41 3 1.8987060171 1.1242189029 7.3598452273
42 2 -5.5468127394 9.4141126184 -2.7870002899
43 3 -5.6846564685 8.6351766757 -3.3186412030
44 3 -4.6724638436 9.2764757871 -2.3532912745
45 2 -5.9901780710 -3.3666826731 6.2859993814
46 3 -6.6943020902 -3.3262252458 5.6450307966
47 3 -5.2611053715 -3.6574350797 5.6471597424
48 2 7.5467039291 4.0399281576 6.9690155808
49 3 7.9577730762 3.1871949211 6.8551959888
50 3 6.8427078839 4.0868542384 7.5912248189
51 2 7.2525325493 1.2971626467 4.2672684379
52 3 7.1899615981 2.2301183894 4.0024956488
53 3 7.8450061774 1.2922944115 5.1180380788
54 2 -3.2643012063 1.9260265881 0.2998376948
55 3 -2.4986191134 1.8429603717 0.9417311108
56 3 -4.0355677151 2.1427062661 0.8579152836
57 2 4.8177451600 9.0903461474 0.3662445161
58 3 5.2630801165 8.8808223059 1.2082841545
59 3 5.4665956043 8.7669492588 -0.3031756979
60 2 7.3867910586 3.9102560330 3.4508055562
61 3 6.9102712543 4.7544684134 3.7628699720
62 3 7.4153916133 3.9383808476 2.4982545192
63 2 10.3272919469 4.5595176850 14.3668408635
64 3 10.5123402395 5.4232852552 14.7320196541
65 3 9.3413961927 4.4587101628 14.4590253442
66 2 1.4499937306 9.1688520452 5.5294967382
67 3 1.7436417549 9.4839303736 4.6011094228
68 3 1.3015941011 9.9697540187 6.0620274705
69 2 7.4702879789 9.9582891169 8.7724975909
70 3 7.3516851133 10.7268332019 9.4310259951
71 3 8.2396728110 9.4875137254 9.0871273261
72 2 18.6431327021 4.4342727932 0.7053369046
73 3 18.3610677163 5.1633634892 0.1455136614
74 3 18.2905887884 3.5892101346 0.3232879343
75 2 -0.7141191917 -3.0116540660 4.4882243780
76 3 -0.7244893975 -2.5561340691 3.6453227875
77 3 -0.0818526342 -2.3726256670 5.0117190052
78 2 6.7218389182 9.0554648170 2.5552636021
79 3 7.6326850042 8.7776242081 2.2483236569
80 3 6.8530197857 9.9031499088 2.9152478354
81 2 2.7659622165 7.1169724302 0.1009199254
82 3 3.5065325366 6.4780156539 0.2414775303
83 3 3.2612821868 7.9695388633 0.2577054150
84 2 0.3827680519 14.0963400371 9.2934367975
85 3 0.7344949792 13.7041675436 8.4913099427
86 3 0.3847966059 15.0539170309 9.0702131482
87 2 -0.2646577045 6.3567689397 8.5257945374
88 3 -0.7457573236 6.0140629809 7.7267683224
89 3 0.3796821482 7.1015207880 8.2001321841
90 2 4.8732268196 0.4587575446 5.3136746025
91 3 5.7919721765 0.6381511886 5.0570978094
92 3 5.0268970274 -0.0312292032 6.1944937188
93 1 -0.2874866869 0.3171417138 1.0252890381
94 1 3.7912045426 3.7292635822 1.6807921049
95 2 -1.0539227653 1.7617091408 1.8435838041
96 3 -1.4622583790 1.6624602841 2.7068163959
97 2 -0.5139732694 0.2925829139 -0.7285640538
98 3 -0.4595217949 1.2055283596 -1.1434862043
99 2 -1.0215380587 -1.1203765427 1.6201718284
100 3 -0.7335668761 -2.0095199621 1.4155952307
101 2 1.4090760973 0.2242494580 1.3823710821
102 3 1.7337981698 1.1696499254 1.2797135743
103 2 4.4769466367 4.9063884568 0.5050115786
104 3 5.3701478849 5.3177233166 0.5660539375
105 2 2.4146909888 2.9763740443 0.8670027675
106 3 2.1585588703 3.2653121750 -0.0117372382
107 2 3.5816938361 4.5812977595 3.1617179634
108 3 3.2556190087 4.1380078332 3.9734004959
109 2 4.8801970144 2.2619348968 1.8716662000
110 3 5.2860182935 2.2585400371 2.7474184481
ITEM: TIMESTEP
4
ITEM: NUMBER OF ATOMS
110
ITEM: BOX BOUNDS pp pp pp
0 10.574210
0 10.574210
0 10.574210
ITEM: ATOMS id type x y z
1 4 0.0022083243 4.2405681834 1.4819395674
2 4 3.6035325800 0.6600428070 0.4953253272
3 2 3.2171828383 -1.1753620670 3.7637254345
4 3 2.6768838706 -0.7515438545 3.1211686154
5 3 3.8885035389 -0.5811376781 4.2281766881
6 2 0.6070585210 6.6523943472 12.1230454394
7 3 0.6819611692 6.7574791025 13.0310863207
8 3 1.4433084376 6.9030998902 11.7049067448
9 2 -2.1134097249 -4.3117239678 6.6383560799
10 3 -2.4270679966 -5.1621304101 6.4269935320
11 3 -2.0222946233 -3.7223667912 5.8627971943
12 2 2.1818197879 6.9512265806 4.1366241091
13 3 2.5862561058 6.2241424962 3.5596520848
14 3 2.6149799688 7.7693718695 3.9632741838
15 2 -4.6163181135 6.1738970098 3.9986685427
16 3 -5.4150511757 5.7887037086 3.5191178753
17 3 -4.0795703573 6.8722378049 3.4949255099
18 2 4.9853435565 1.7389939913 9.1332446447
19 3 5.7587625118 1.9065344350 9.6877250163
20 3 4.6798585866 2.6209310606 8.8604349304
21 2 -3.3159858329 7.0683396932 9.3569383618
22 3 -3.1199967850 6.6428437932 8.5080136388
23 3 -2.3769458922 7.2447676783 9.5573174413
24 2 4.4663032001 4.4549018651 7.8903035058
25 3 4.2787970035 5.2835504819 7.3411540931
26 3 4.3278994389 4.7363496645 8.7879972733
27 2 3.0339795660 3.0028872541 5.8837625066
28 3 3.3907546582 3.4318613014 6.6886557579
29 3 3.5912927624 2.2591840711 5.7490715473
30 2 -1.7957140289 0.9857361628 6.7820017941
31 3 -0.8845759749 0.9203310595 7.1564899319
32 3 -2.3915749771 0.6302723501 7.4677214506
33 2 1.7740987331 7.8516519647 -2.6865863044
34 3 2.7364158203 7.6588795650 -2.5976809008
35 3 1.6872105643 8.4238014318 -3.5006840143
36 2 2.2284531588 -0.1527326085 9.1532393642
37 3 1.3157285917 -0.0625573797 9.5299496544
38 3 2.2322937025 -1.0019712941 8.7187630714
39 2 0.9853552554 1.7089550076 7.3479259400
40 3 1.7028247644 2.2711644336 6.8818636881
41 3 1.4913781901 1.0229050657 7.8606692509
42 2 -5.9181015358 9.4158602631 -3.1014614243
43 3 -5.6794913767 8.5041632815 -3.3930057485
44 3 -5.2260889768 9.7433372790 -2.5679577646
45 2 -6.4486683699 -3.9026715243 6.1805994428
46 3 -7.2978646987 -3.8064390822 5.6422548598
47 3 -5.7702106362 -4.0676947889 5.5061252904
48 2 7.3316362462 3.7146831280 7.0467411144
49 3 7.8762461455 2.8923121674 7.2706133000
50 3 6.4480914275 3.3784975865 7.2898083375
51 2 7.5664758272 0.4912145131 4.3095050863
52 3 7.3520736987 1.3290893332 3.9027876961
53 3 8.0987004622 0.6749331332 5.0678870119
54 2 -3.5571488825 1.7129105113 0.3943497568
55 3 -2.7430638972 1.7536180967 0.9450111628
56 3 -4.3169156698 1.9776198961 1.0376100783
57 2 5.3411566163 9.2642905125 0.5097947096
58 3 5.8316791881 8.9742831129 1.3563372886
59 3 5.7948113654 8.8233111431 -0.2083804772
60 2 7.2191701966 3.7437487831 3.5455345629
61 3 6.9112470936 4.5960082011 4.0618495730
62 3 7.1202410913 4.0392375894 2.6503363713
63 2 10.0002316906 4.5314415733 14.3658228312
64 3 10.0397026110 5.5009304141 14.6229238671
65 3 9.1085758065 4.1621602265 14.4894188440
66 2 1.1668314701 9.8080320246 5.4143145542
67 3 2.0619230915 9.8002727837 4.9415904368
68 3 1.0269066640 10.7255817904 5.8343489743
69 2 7.4772401242 10.3547799822 8.7503137797
70 3 7.3844666606 10.8189886961 9.6603970282
71 3 8.2724084411 9.8072708186 8.8601744902
72 2 18.2686443223 4.6077378301 0.6333823376
73 3 18.4330733783 5.4508074722 0.1301671338
74 3 18.2729617238 3.9131110339 -0.0594237395
75 2 -1.0145711180 -2.6936035905 4.3665011614
76 3 -1.1025781120 -2.1627222238 3.5180066436
77 3 -0.2442812434 -2.1807341153 4.7859959152
78 2 7.2813040678 8.4514579542 2.6666301912
79 3 8.1772537998 8.6813115631 2.2870840699
80 3 7.2714326075 9.1739658931 3.4008314247
81 2 3.1399958661 7.0817148377 0.0513511645
82 3 3.7746798584 6.3496450704 0.3190067165
83 3 3.5988458150 7.9758070553 0.2653877528
84 2 0.4825061693 14.1853849317 9.5651304409
85 3 0.7009251607 13.5431547357 8.8021667146
86 3 0.1492489622 14.9945156009 9.0582129572
87 2 -0.5888610278 6.1338240561 8.7888459390
88 3 -1.1368962747 6.2810230983 7.9296185942
89 3 0.0927558842 6.8292037225 8.6546984982
90 2 4.8279355100 0.5362113178 5.2115859275
91 3 5.7465964132 0.6125121991 4.9614970491
92 3 4.8217174940 -0.1383991855 5.9257733784
93 1 -0.1359837006 0.2306827921 1.3681044352
94 1 3.8486704091 3.8839199341 1.7589286718
95 2 -1.1509570655 1.4964039184 1.9706252029
96 3 -1.6124064421 1.3777579607 2.7512402269
97 2 -0.2395143309 0.3987244928 -0.3996740350
98 3 -0.2774871146 1.3492619489 -0.5411797717
99 2 -0.6103656227 -1.4720651655 1.6658134835
100 3 -0.0765963698 -2.1506154969 1.2500824213
101 2 1.5343790363 0.3149771578 1.9765967891
102 3 1.7185895600 1.1859349705 2.4232598292
103 2 4.6352646140 4.7264437105 0.5051222846
104 3 5.5575235634 4.7676031202 0.3055919132
105 2 2.2074805352 3.5261175969 1.2098741796
106 3 2.2085485264 3.5428076449 0.2200694607
107 2 3.6600932422 4.8211465767 3.3669578571
108 3 3.6060194105 4.5281047596 4.2766141395
109 2 4.7453297317 2.3146452021 2.0230307956
110 3 5.1174374350 2.2546286072 2.9196785484
ITEM: TIMESTEP
5
ITEM: NUMBER OF ATOMS
110
ITEM: BOX BOUNDS pp pp pp
0 10.583746
0 10.583746
0 10.583746
ITEM: ATOMS id type x y z
1 4 -0.0016280927 4.2521713461 1.4808922850
2 4 3.8058671329 0.2460524888 0.5435336620
3 2 2.5323219881 -1.0040728028 3.7827982461
4 3 2.1537962999 -0.4331502599 3.0477883486
5 3 3.3110413536 -0.4144013838 4.0971060205
6 2 1.3521764665 6.6131364900 11.9839966833
7 3 1.9272666743 6.5946148253 12.8091181287
8 3 1.9634996493 6.9856610986 11.2818056169
9 2 -2.2469943299 -4.0142085969 6.9316641616
10 3 -2.5637392120 -4.9168389728 6.8578169603
11 3 -2.2086996985 -3.7331565416 6.0108223136
12 2 2.6460425807 6.6359161782 4.2088439737
13 3 3.2325237927 6.0405569545 3.6455917325
14 3 2.8042803124 7.5481576459 4.0924234667
15 2 -4.4217536301 6.0990680669 4.1457936017
16 3 -5.2290639688 5.6773064923 3.7454574592
17 3 -4.2946500229 6.8245569155 3.4126329566
18 2 4.4868901929 1.8737169396 9.6077706144
19 3 4.8492625210 2.7681302524 9.8814092018
20 3 3.7210503486 2.0798926578 9.0436166702
21 2 -2.7057508908 7.0761720843 9.7813096012
22 3 -3.0764357630 7.2238790109 8.8902346336
23 3 -1.7283263445 6.8987494571 9.6350242843
24 2 4.4680974606 4.3792416607 7.9950657291
25 3 4.2677691549 5.3153195469 7.6619840551
26 3 4.2382749435 4.3373148350 8.9208803390
27 2 3.1607432122 2.8567926550 5.7107917014
28 3 3.6815645341 3.3196248249 6.4010474019
29 3 3.7353696116 2.0423798116 5.5660509643
30 2 -2.2297069349 1.0822946639 7.2969104364
31 3 -1.2814835210 1.2155979944 7.5075197113
32 3 -2.6444324248 0.5835815825 8.0699263357
33 2 1.6151134888 8.2098978356 -2.4321712487
34 3 2.4683397715 7.7531936557 -2.3192151357
35 3 1.4362961137 8.3250918727 -3.3791841961
36 2 2.0489158366 0.0588287504 9.1740275511
37 3 1.1785421710 0.3742046442 9.6157837918
38 3 1.8134391493 -0.8556163355 8.9019935775
39 2 1.0120186814 1.6414053514 7.1439801994
40 3 1.8777576915 2.1293708712 6.8510275097
41 3 1.2345146475 0.9406157034 7.8564815609
42 2 -5.9477356503 9.4013015405 -3.4124111787
43 3 -5.8679244558 8.4117671917 -3.5542180889
44 3 -5.2204892519 9.5917573072 -2.7481045664
45 2 -5.9667776949 -3.7528256119 6.4114398972
46 3 -6.8081659677 -3.9076772567 5.8932109035
47 3 -5.2753288576 -3.8941372726 5.6970593192
48 2 6.9033926952 3.8302003669 7.0176908781
49 3 7.2141826561 2.9879059206 7.2764810783
50 3 5.9730800633 4.0026075363 7.2393531578
51 2 7.2824107218 0.6692868713 4.3354819654
52 3 7.4545010905 1.6472240998 4.1900793996
53 3 7.5158622615 0.5405519994 5.2818514563
54 2 -3.1975966161 1.9623789515 0.4504685629
55 3 -2.3616416221 1.8614603919 1.0235978967
56 3 -3.9234683082 1.8875375046 1.1446303157
57 2 5.2619791170 8.9993201169 0.3406416667
58 3 5.7918464748 8.6708002603 1.1362973203
59 3 5.9107744654 9.3395018026 -0.3275412889
60 2 7.2605807410 3.2849417671 3.5202278412
61 3 7.0297626588 3.9091057623 4.2117290001
62 3 7.3833902459 3.8207546833 2.7054507632
63 2 9.9349711073 4.9174621002 14.4571825739
64 3 9.7717192392 5.7678159740 14.9162635516
65 3 9.2460325986 4.3372494381 14.8643700195
66 2 0.8882563484 9.6123291117 5.8839664480
67 3 1.3068200019 9.6674937749 5.0274308879
68 3 0.8691160774 10.4994844996 6.1851121876
69 2 7.2486693941 10.4165612955 9.5889249843
70 3 7.2134661950 11.1525618660 10.1839679911
71 3 7.9630892302 9.8340772434 9.9652356397
72 2 18.5300142591 4.6875189415 0.8385754202
73 3 18.6833559201 5.1730200118 0.0244245064
74 3 18.4256582563 3.7706629007 0.5334738822
75 2 -1.4263075388 -2.5975352830 4.7824617816
76 3 -1.2717026661 -2.2504139494 3.8527971514
77 3 -0.8572594516 -2.1015761933 5.3502151638
78 2 7.0098581295 8.5041102158 2.6371247589
79 3 7.9520195775 8.4936065573 2.3407652519
80 3 7.0259939777 9.3100546442 3.1393563253
81 2 3.4027537633 7.2339198592 -0.3445432068
82 3 3.6345220538 6.2675109870 -0.1885212888
83 3 4.1849649704 7.8610774070 -0.1832325946
84 2 0.3724385513 14.0486832811 9.6150832463
85 3 0.2879474700 13.3316204909 9.0237896069
86 3 0.4095435576 14.8617724704 9.1374708804
87 2 -0.2335178797 6.3252222301 8.8332322414
88 3 -0.7191730288 6.2120429295 7.9497074756
89 3 0.4438874285 6.9631695244 8.7394144903
90 2 4.6486379135 0.5849627812 5.0574835675
91 3 5.5621007884 0.7913345792 4.7239199049
92 3 4.7648926831 0.0468571392 5.8783218082
93 1 -0.1690693198 0.1950408505 1.4807913166
94 1 4.0080755339 3.4535896418 1.7274773258
95 2 -1.0848583625 1.5453223934 2.1398284913
96 3 -1.5571432420 1.4945650387 2.9465695013
97 2 -0.3228829068 0.4714379423 -0.2209642292
98 3 -1.0721357151 0.6671424575 -0.7436614735
99 2 -0.7397016154 -1.3442786946 2.0441301583
100 3 -0.2067042408 -2.1219774393 1.7852273384
101 2 1.5755612379 0.4034105777 1.8182714156
102 3 1.7452005830 1.3703137113 1.8175550660
103 2 4.6384804274 4.3523949706 0.2736310164