-470920.102 
-470915.383 
-470909.967 
-470918.654 
-470906.261 
-470911.734 
-470904.196 
-470917.332 
-470923.883 
-470914.419 
-470912.025 
-470926.888 
-470914.196 
-470911.454 
-470894.983 
-470895.236 
-470909.199 
-470898.103 
-470920.776 
-470910.408 
