ITEM: TIMESTEP
0
ITEM: NUMBER OF ATOMS
110
ITEM: BOX BOUNDS pp pp pp
0 10.427942
0 10.427942
0 10.427942
ITEM: ATOMS id type x y z
1 4 -0.1251121927 4.9670186220 0.8032798072
2 4 3.0433084057 1.8425151219 -0.3498587629
3 2 3.0950171340 -0.1957123664 2.4632533719
4 3 2.3844202905 0.5009396390 2.4358515936
5 3 3.7609614082 0.0602781547 3.0927710208
6 2 0.2597135854 7.2577698732 11.1024586054
7 3 0.8241791956 7.7862909856 11.6845125307
8 3 0.5059533033 7.4523829419 10.1560554301
9 2 -1.7488827138 -3.2211167108 8.0432381485
10 3 -1.3274154766 -4.0822051881 8.0167426413
11 3 -2.5886137625 -3.2405858556 7.5956781052
12 2 1.7955381288 7.8411216275 2.9606458964
13 3 2.3662665873 7.0614345029 2.9123586064
14 3 2.2860555691 8.6918792393 2.7264809519
15 2 -5.3675832303 7.8872924702 4.1846149376
16 3 -5.7765246234 7.2340316033 3.5950657858
17 3 -4.4111716011 7.7140691709 4.2815891197
18 2 4.1275102055 3.2007436124 8.3940094290
19 3 3.4137712393 3.8509735696 8.0895060984
20 3 4.9958453280 3.3636643634 8.0349862355
21 2 -2.3849337028 8.8696147371 10.4586317874
22 3 -2.0896685094 8.1740072035 9.8578043327
23 3 -1.5322485549 9.2775527459 10.8692580733
24 2 5.7878001382 7.1978542364 6.9737657437
25 3 5.3794401246 7.4522589328 6.1618404242
26 3 5.1834484756 7.0502740894 7.7682040832
27 2 3.1364304954 3.6154687881 5.0206077209
28 3 2.9703023114 4.0759867246 5.8891979209
29 3 3.8077215003 2.9276205830 5.2651216466
30 2 -1.8198531579 1.6430159938 5.8467160738
31 3 -0.9234042232 1.3254978029 6.0243409416
32 3 -2.4577840943 0.9292727763 6.0744514173
33 2 0.8443402976 7.8967505759 -2.8349016311
34 3 1.1064463336 8.3740990046 -3.6845081636
35 3 -0.1559686851 7.8603802582 -2.7818202292
36 2 1.6059385532 0.2827179427 8.5266277705
37 3 0.7228016813 0.4587853277 8.9839186145
38 3 1.4707213088 -0.6538060071 8.3045275605
39 2 0.9126388016 1.7814192582 6.2836315658
40 3 1.5935768127 2.1918914248 5.7150455341
41 3 1.3846550074 1.4216719098 7.0263708766
42 2 -5.5242052508 10.4702657969 -3.3216307196
43 3 -6.2378942532 10.9701695322 -2.8202349536
44 3 -4.7307591974 10.6422540768 -2.8350245114
45 2 -7.7446657793 -1.1131190484 5.6484601205
46 3 -6.8863169860 -0.8197070721 5.9572246422
47 3 -7.5421023402 -1.6950899434 4.8926783388
48 2 6.9321771555 4.3330531246 7.5990476601
49 3 7.0930899004 3.9162374238 6.7560972396
50 3 6.5819873463 5.2014688481 7.4318549623
51 2 7.0275031666 3.1898881154 4.3220726866
52 3 7.1562191757 4.1581784745 4.0776619656
53 3 7.8054095150 2.8483411899 4.7521167190
54 2 -3.8029336547 3.0419064250 0.0526205391
55 3 -2.9027910486 2.9864725898 0.4810275181
56 3 -4.4584431367 2.9844904743 0.7735563118
57 2 4.7257590991 9.8166720521 -0.2694060779
58 3 4.6996209624 10.0023773689 0.6783191532
59 3 5.5859112842 10.2063424990 -0.5654567932
60 2 8.1135642156 6.1628909026 3.8338894938
61 3 8.0251732648 7.0837589853 4.0038958092
62 3 7.8810584147 6.0455380128 2.8893494004
63 2 10.8482348900 4.8691096936 13.8662588854
64 3 11.8156744109 5.1402396423 13.8940911600
65 3 10.3215460965 5.5983644036 14.1126191231
66 2 0.1343953446 9.6387802190 4.5704221602
67 3 0.4601468850 8.8210715724 4.1179167417
68 3 0.9106484493 10.2149131988 4.7490318876
69 2 7.0873686526 11.2010223561 9.1597061590
70 3 6.9491391082 11.9727089261 9.7787503370
71 3 7.3405729048 10.3498919670 9.6696483078
72 2 18.0744440737 6.1609257206 1.1663218313
73 3 18.1725901350 7.1286708915 0.8746304786
74 3 17.1372120419 5.8980987012 1.1322818568
75 2 -2.6850871946 -0.9724518855 4.6465262313
76 3 -2.8846868276 -0.3454021429 3.9634512451
77 3 -1.8303147865 -0.6980249023 4.9891640598
78 2 6.6488011470 11.1956144020 2.3397435140
79 3 7.4817119379 11.0295447512 1.8402124326
80 3 6.7901032215 12.0739584145 2.7141359888
81 2 4.1307619235 7.0714378605 -1.2680003227
82 3 4.5721890000 6.4827395844 -0.5167601335
83 3 4.1120978835 7.9930233695 -0.8552402045
84 2 -0.5933612261 14.4665138048 8.7246335374
85 3 -0.2844275737 13.5587105528 8.7116790773
86 3 -1.5188954883 14.4983871391 8.4179351784
87 2 2.1512000793 4.8952618257 7.8453745424
88 3 1.1972331991 4.7580919829 7.6760323393
89 3 2.3783540266 5.8327611666 7.8544808768
90 2 4.5644981675 1.2209284092 4.6779030365
91 3 5.3408235592 1.4745762875 4.1042930521
92 3 4.8878907333 0.7452789660 5.4857256255
93 1 -0.3575522821 1.4681925785 1.1969029319
94 1 3.6659539419 4.5996670561 1.5923432409
95 2 -1.2638376564 2.8942108038 1.5800541711
96 3 -1.1902296157 3.0403942270 2.5491712575
97 2 -0.5521780317 1.3442170490 -0.6492665153
98 3 -1.4264249371 1.0800055744 -0.9518067846
99 2 -0.9373834919 -0.0560014267 1.8398266698
100 3 -0.7249325087 -0.3250744030 2.7637316523
101 2 1.3212323016 1.6992956977 1.6766009679
102 3 1.5774073476 2.4798745204 2.1335509201
103 2 4.9822640881 5.3905761109 0.6561420847
104 3 5.3223400147 4.6421017031 0.1272454831
105 2 2.2895001206 4.5080108183 0.5538248177
106 3 2.5965596549 4.9443772906 -0.2660001407
107 2 3.4559881177 5.3977514912 3.1317180883
108 3 3.6658576963 4.6875599425 3.8156967506
109 2 4.1549151035 2.9210043519 1.7092901968
110 3 4.4056208671 2.3424521761 2.4208172774
ITEM: TIMESTEP
1
ITEM: NUMBER OF ATOMS
110
ITEM: BOX BOUNDS pp pp pp
0 10.427942
0 10.427942
0 10.427942
ITEM: ATOMS id type x y z
1 4 -0.1585657214 4.9184347186 0.7668492815
2 4 2.9353994768 1.8580075009 -0.4076127691
3 2 3.1688013420 -0.1285514980 2.4736261466
4 3 2.4298332524 0.5090592418 2.3104133498
5 3 3.4795408691 -0.0803527774 3.4236112546
6 2 0.2626264853 7.2418829814 10.9900441637
7 3 0.8996925643 7.4852339738 11.7275035850
8 3 0.6948016535 7.6384683831 10.2317920304
9 2 -1.7189685602 -3.2965434280 8.0455117870
10 3 -1.6757627635 -4.2714710771 8.0624542997
11 3 -2.6631120924 -3.1573803000 7.6830452967
12 2 1.7969793283 7.9182753796 3.0025584429
13 3 2.3339595166 7.0769503591 2.9679821640
14 3 2.3616945006 8.6731829425 2.6865034880
15 2 -5.3231748219 7.8822263688 4.1927299838
16 3 -5.7156108013 7.0542906939 3.8390055790
17 3 -4.3639939755 7.7739892245 3.9969957058
18 2 4.1360417453 3.1890227036 8.4460457803
19 3 3.5954936282 3.8968252278 8.1142411225
20 3 5.0356459717 3.4250079433 8.0835709718
21 2 -2.3811633999 8.9241601491 10.4098397844
22 3 -2.0116559771 8.3699552125 9.6742197404
23 3 -1.6648381619 9.0586645901 11.0264203956
24 2 5.8071419152 7.1721545614 7.0996473029
25 3 5.4629169177 7.3001080368 6.1555078996
26 3 5.0586308680 7.2408999180 7.6738766635
27 2 3.1469126994 3.6134527901 4.9653621345
28 3 2.8280605844 3.7507957398 5.8659289606
29 3 3.7322099181 2.8026859353 4.9464196719
30 2 -1.7470499615 1.6191906303 5.7557749170
31 3 -0.7763723207 1.4682964167 5.9283011327
32 3 -2.2633269750 0.9099533825 6.0926565380
33 2 0.8766978353 7.9619384201 -2.8496380134
34 3 1.0906261606 8.5003907962 -3.6059891900
35 3 -0.0650379266 7.8820514482 -3.0082914503
36 2 1.6302861231 0.3325993062 8.5409307347
37 3 0.7423076247 0.6339731723 8.8321767994
38 3 1.6565326657 -0.6356910681 8.3783177478
39 2 0.8345565454 1.7917913623 6.3357951837
40 3 1.4059264340 2.2333734544 5.6933854466
41 3 1.3323522837 1.1729550965 6.9714243687
42 2 -5.5300127204 10.5387246627 -3.3381933499
43 3 -6.0623311717 11.1776148898 -2.8913232342
44 3 -4.6873690808 10.6039699477 -2.7549675669
45 2 -7.7064461018 -1.1092565415 5.6315982218
46 3 -6.9167988003 -1.0979424270 6.2438257852
47 3 -7.4691368662 -1.7476727470 4.9460129248
48 2 6.9447027394 4.4246496737 7.5960642508
49 3 7.2920983050 4.2516369428 6.6704269352
50 3 6.5724148270 5.3611586967 7.4837423824
51 2 7.0548175044 3.1796223296 4.3453459387
52 3 7.1341058920 4.1167962906 4.1970889834
53 3 7.8929420243 2.9639787126 4.8614100750
54 2 -3.7359929575 3.0407170763 0.1274082263
55 3 -2.9452825830 3.1695490968 0.7060747489
56 3 -4.5053114809 2.7621467887 0.6768682665
57 2 4.6731165421 9.8484857197 -0.2969015812
58 3 4.6715542551 9.9322074525 0.6821750959
59 3 5.3827334711 10.4202063388 -0.5991971387
60 2 8.1425595917 6.1162762997 3.9486011193
61 3 8.2766885763 7.0605573602 4.2713336699
62 3 8.0834151388 6.1538074296 2.9558562976
63 2 10.9041203092 4.9036214293 13.8175588256
64 3 11.7427792680 5.2153110187 14.1429941308
65 3 10.2803436929 5.6634702463 14.0887846969
66 2 0.1405445480 9.7233936159 4.5572870007
67 3 0.3856193549 8.8013316604 4.4499694657
68 3 0.8559604044 10.1373735885 5.0633697722
69 2 7.0648761100 11.2137168661 9.1533389944
70 3 6.7300006847 12.0063858488 9.6547761704
71 3 7.2748837151 10.5088273422 9.8038770495
72 2 18.1716835635 6.1718029838 1.1812281561
73 3 18.1541923200 7.1060388959 1.0438725789
74 3 17.2276500361 5.8785035912 1.0203827521
75 2 -2.7736344052 -1.0455397200 4.5912996784
76 3 -3.2237569016 -0.3315445498 4.0502230850
77 3 -1.7867555211 -0.8528014785 4.6726026578
78 2 6.7541669234 11.1670211753 2.3191290091
79 3 7.6732528608 10.8683694994 2.1245167800
80 3 6.9416540931 12.1063429621 2.5957649998
81 2 4.1193994288 7.0192105005 -1.2234196424
82 3 4.4194979559 6.5715068585 -0.3921617015
83 3 4.1866214035 7.9626629758 -1.0566107035
84 2 -0.5437604054 14.4405413686 8.7351128617
85 3 -0.4474933386 13.5221137970 9.1667948622
86 3 -1.3800343624 14.2710380522 8.2576411081
87 2 2.1827289058 4.8742524911 7.8955590903
88 3 1.2675887967 4.5601649725 7.7506166729
89 3 2.1191520689 5.8149110716 7.5602434133
90 2 4.5218133853 1.2285905360 4.6316084842
91 3 5.4146397937 1.2150174053 4.3229696370
92 3 4.7185726819 0.7939948003 5.5105526390
93 1 -0.3292362291 1.4552877467 1.1506044711
94 1 3.5457148303 4.4428955118 1.6961969721
95 2 -1.3187078775 2.9439595906 1.6830127752
96 3 -1.2496980109 3.3780272509 2.5564260402
97 2 -0.5309848635 1.3226171442 -0.6099419637
98 3 -1.4329454235 1.1509276242 -0.9867717113
99 2 -0.9952529536 -0.0170349259 1.7750726413
100 3 -0.6998348304 -0.3549854412 2.6212709536
101 2 1.4362508394 1.8445166288 1.6404616491
102 3 1.5682367883 2.7508470902 1.9524803422
103 2 4.8298271905 5.3805102740 0.6850722812
104 3 5.3577228147 4.8215426548 0.0646290129
105 2 2.2177656880 4.4496714272 0.5577281857
106 3 2.4205324919 4.8151724115 -0.3260001184
107 2 3.5203891858 5.4202936803 3.1593257493
108 3 3.3899369470 4.9569316100 3.9853176718
109 2 4.1793111037 2.8411675863 1.7240075924
110 3 4.3992474765 2.1796519410 2.4004261296
ITEM: TIMESTEP
2
ITEM: NUMBER OF ATOMS
110
ITEM: BOX BOUNDS pp pp pp
0 10.427942
0 10.427942
0 10.427942
ITEM: ATOMS id type x y z
1 4 -0.2132791367 4.9665310445 0.7420011598
2 4 2.8455330522 1.8601760781 -0.4085586811
3 2 3.2237878345 -0.1135539377 2.4858071945
4 3 2.7188045838 0.6900990871 2.2054609093
5 3 3.3847785052 0.1873195613 3.3850952398
6 2 0.2798321941 7.2741418243 10.8884215854
7 3 0.7333257226 7.3892552307 11.7355236119
8 3 0.8764679466 7.6841699585 10.2323703657
9 2 -1.7168513000 -3.3678385743 8.0123904144
10 3 -2.0162010126 -4.2340463315 8.3783061622
11 3 -2.5733163133 -3.0167103754 7.7435150724
12 2 1.7861714946 7.9521813733 3.0327020237
13 3 2.4868544495 7.2790731264 3.0839108682
14 3 2.3245568228 8.7337506079 2.7631780050
15 2 -5.3125756328 7.8306058493 4.1862150883
16 3 -5.4970526011 6.9255317654 3.8106170335
17 3 -4.4710445058 8.0398156989 3.7745637868
18 2 4.1932086493 3.1315739802 8.4408020127
19 3 3.6675739427 4.0019597180 8.3237187303
20 3 5.1062786837 3.4438916306 8.4735617123
21 2 -2.4047464327 8.9441124131 10.3711420376
22 3 -1.8836943071 8.5568291545 9.6484014973
23 3 -1.7503843292 9.3143154745 11.0444681954
24 2 5.8549319367 7.1376090804 7.1918129610
25 3 5.4948408351 7.3788381083 6.3360913287
26 3 5.0509644512 7.0559013974 7.8586854907
27 2 3.1357634003 3.5733165329 4.9677978482
28 3 3.1777465604 3.6015553853 5.9425381276
29 3 3.7270146683 2.8675000487 4.6840053995
30 2 -1.6950595049 1.6138250824 5.6784958664
31 3 -0.7693618709 1.7214219246 6.0009490804
32 3 -2.0158054156 0.7623623487 6.1008050061
33 2 0.9185436864 8.0316340330 -2.8765382012
34 3 1.3797716578 8.3507892088 -3.7053254221
35 3 -0.0501234130 7.7917470337 -2.9735309523
36 2 1.6490960026 0.3874351840 8.5604107709
37 3 0.7826018271 0.6554019281 9.0200452254
38 3 1.6828929887 -0.5875520136 8.5709077888
39 2 0.8014486243 1.7836915571 6.3723920665
40 3 1.3444237151 2.0725402501 5.6155178580
41 3 1.3101636761 1.1622382806 6.8934843904
42 2 -5.5417117317 10.6211551138 -3.3025982858
43 3 -5.8893105440 11.4449819623 -2.7928882877
44 3 -4.6966375782 10.4611553044 -2.9365422897
45 2 -7.6769696707 -1.1060633890 5.6496524980
46 3 -6.9818902100 -1.2176239887 6.2933452413
47 3 -7.4110709852 -1.7381205037 4.9453391104
48 2 6.9793231690 4.5307169107 7.5539482960
49 3 7.0099731581 4.2833786193 6.6362225838
50 3 6.4383688760 5.3364738273 7.4532988507
51 2 7.0444912782 3.1767199989 4.3241350479
52 3 7.2788122277 4.1439519519 4.3043395975
53 3 7.7401825235 2.6782353971 4.8066929162
54 2 -3.6949230668 3.0157358657 0.2096281930
55 3 -2.9928195202 3.1475080941 0.8759549215
56 3 -4.4818362811 2.9034542699 0.8041248535
57 2 4.5660420730 9.9064518148 -0.3103454339
58 3 4.6289939585 9.8377885817 0.6697892271
59 3 5.4202435048 10.3232293719 -0.5876603655
60 2 8.1939155572 6.0772511740 4.0475968665
61 3 8.2045268111 6.9478990496 4.4406908174
62 3 7.9875304350 6.3273057085 3.1106002849
63 2 10.9150574229 4.9515183779 13.7726126041
64 3 11.7830872735 5.2595875235 14.1292866181
65 3 10.2045427847 5.3422892873 14.2608045834
66 2 0.1353225273 9.7748991416 4.5437825000
67 3 0.7211946279 8.9738101523 4.3865609217
68 3 0.6468279514 10.1997470984 5.2529985194
69 2 7.0204023481 11.1973608300 9.1328780605
70 3 7.1131773266 12.0760028551 9.5605518121
71 3 7.4529936686 10.5297709506 9.7137506367
72 2 18.2463731976 6.1863171614 1.1842489847
73 3 18.1819433226 7.0998178793 0.7312775527
74 3 17.3229499690 5.8806494363 1.0897852934
75 2 -2.8406393310 -1.1290715785 4.5451852343
76 3 -3.3859716627 -0.5772906492 3.9743947155
77 3 -1.9540796215 -0.8308573109 4.3423245105
78 2 6.8516779364 11.1766153764 2.3243054750
79 3 7.6932921110 10.6716461798 2.2022318771
80 3 7.1834994367 12.0516543344 2.5157255465
81 2 4.0683071184 7.0237874146 -1.2164010582
82 3 4.2210503007 6.3781910258 -0.5361775692
83 3 4.3119706306 7.8982277643 -0.8079891096
84 2 -0.5034685257 14.3879561529 8.7415152809
85 3 -0.5434707323 13.5389764866 9.2124680302
86 3 -1.3667836785 14.3885809656 8.2650740258
87 2 2.1517809356 4.8617773802 7.8664542821
88 3 1.3046258736 4.4464604543 8.1913171982
89 3 1.9057974678 5.7899984886 7.8545289068
90 2 4.5076149667 1.2514670275 4.6002952118
91 3 5.4668711657 1.3770732380 4.3236688178
92 3 4.5733048418 0.7618139284 5.4450852404
93 1 -0.2815619857 1.5288223774 1.1566924888
94 1 3.4309449393 4.2464812448 1.7333451412
95 2 -1.3135960204 2.9280572465 1.7087072877
96 3 -1.2819777635 3.0889306211 2.6497989987
97 2 -0.4703639640 1.3315365874 -0.5809998399
98 3 -1.3532864307 1.1595167619 -0.9171368700
99 2 -1.0239384472 0.0021888511 1.7642687836
100 3 -0.5092351532 -0.2419601875 2.5841058655
101 2 1.5881993159 2.1276497112 1.5384882837
102 3 1.3155806985 3.0271903359 1.8506605966
103 2 4.6897099784 5.3642868065 0.7565185669
104 3 5.1459953528 4.7979486820 0.1429671714
105 2 2.0748039292 4.3840533363 0.5297966700
106 3 2.3738200474 4.9663605362 -0.1792912193
107 2 3.5188713781 5.4770003666 3.1633423851
108 3 3.4680879135 4.9733264439 4.0334901422
109 2 4.2381391672 2.6934117437 1.7039558681
110 3 4.0680127752 2.1404839018 2.4758484788
ITEM: TIMESTEP
3
ITEM: NUMBER OF ATOMS
110
ITEM: BOX BOUNDS pp pp pp
0 10.427942
0 10.427942
0 10.427942
ITEM: ATOMS id type x y z
1 4 -0.3048520163 4.9416305738 0.7937708716
2 4 2.8562784650 1.8543493029 -0.3782103159
3 2 3.2525080303 -0.0893331374 2.4787804287
4 3 2.7351054424 0.6818303842 2.1593506370
5 3 3.8668340706 0.2599662749 3.1960535864
6 2 0.3273218945 7.3066900348 10.8085321118
7 3 0.6553474305 7.6661713762 11.6792422733
8 3 1.0041812811 7.4961814126 10.1268089311
9 2 -1.7282641786 -3.4024428140 8.0262904494
10 3 -1.9921873381 -4.1933225811 8.4808973823
11 3 -2.5398704507 -3.1081220906 7.5098568916
12 2 1.7815213966 7.9745581609 3.0202678501
13 3 2.4677175885 7.2490971380 3.0508630547
14 3 2.2776405352 8.7704976681 2.6972779824
15 2 -5.3471122832 7.7396305829 4.1651256041
16 3 -5.5627279958 6.9896328552 3.5965298380
17 3 -4.5429571209 8.2335793294 3.8554092772
18 2 4.2653400166 3.0853612524 8.4162642963
19 3 3.6820848364 3.8378634934 8.3241830558
20 3 5.1757004383 3.3742852613 8.6679350360
21 2 -2.3949549420 8.9762447401 10.3303536758
22 3 -1.7746346637 8.4912251069 9.7366695979
23 3 -1.7610284761 9.4292613043 10.9794112879
24 2 5.8993338632 7.0888720888 7.2796838404
25 3 5.5640003493 7.4344448611 6.4030532521
26 3 5.2163567518 7.0719748128 8.0112922775
27 2 3.1104024476 3.4976695767 5.0226118040
28 3 3.3880753593 3.7881753016 5.9185179800
29 3 3.7751602413 2.7686632294 4.8039607129
30 2 -1.6850107719 1.6199540935 5.6197368270
31 3 -0.8153748198 1.7887817319 6.0373628263
32 3 -1.9123287642 0.7486077638 5.8916044098
33 2 0.9870874912 8.0721170563 -2.8618017097
34 3 1.4250196622 8.2235757199 -3.7013394805
35 3 0.1190647567 7.6988142341 -2.9714110435
36 2 1.6476760378 0.4250668855 8.6026662765
37 3 0.7261298560 0.5363708877 8.9857100968
38 3 1.6370881871 -0.5419775813 8.4448563637
39 2 0.8027950666 1.7719997941 6.3736932323
40 3 1.5350444378 2.0781375934 5.7962567827
41 3 1.3208452780 1.3139986113 7.1180965403
42 2 -5.5750790093 10.7141095936 -3.2701413873
43 3 -5.6741940864 11.5057591302 -2.7939723255
44 3 -4.6308277959 10.4009854357 -3.0742809995
45 2 -7.6437673634 -1.1168448586 5.6712329629
46 3 -6.8934333932 -0.9133373482 6.3061872409
47 3 -7.2333328842 -1.5957077176 4.9346814243
48 2 6.9668024613 4.6169081682 7.5104719178
49 3 6.7858516378 3.9941466774 6.7533437547
50 3 6.6156205458 5.5254723729 7.3005533203
51 2 7.0172796703 3.1732135724 4.2956988725
52 3 7.4716629259 4.0278803218 4.3159513261
53 3 7.5216939939 2.5451573909 4.8393268233
54 2 -3.6958720105 3.0144552996 0.2899922855
55 3 -2.8579740292 2.9855740700 0.8263980750
56 3 -4.3515216289 2.6582953225 0.9190182226
57 2 4.4519216834 9.9712498249 -0.2951647158
58 3 4.4796246994 9.9503297220 0.6694934962
59 3 5.3566347216 10.1523187136 -0.5828394196
60 2 8.2566966410 6.0695369342 4.1277951691
61 3 7.8977286187 6.7961835819 4.6904911714
62 3 8.0214870597 6.2629104489 3.2018657156
63 2 10.8862783206 4.9648184047 13.7146720433
64 3 11.7367834776 5.3560067137 13.9828694924
65 3 10.1971336599 5.1575240663 14.4160307272
66 2 0.1312587700 9.7834478738 4.5321935697
67 3 0.9329810954 9.3884541617 4.2044564100
68 3 0.3893688929 10.4587091344 5.1917415132
69 2 7.0280028905 11.1931685322 9.0755878461
70 3 6.8250813727 11.8239536648 9.8203326867
71 3 7.2841702327 10.3524336180 9.5820012435
72 2 18.2873422722 6.1911936217 1.1555404249
73 3 18.2798216517 6.9776324805 0.6205126029
74 3 17.3569579378 5.8721719257 1.1600526028
75 2 -2.9022114420 -1.2124380516 4.5007922988
76 3 -3.3680193521 -0.5025428166 3.9699726115
77 3 -1.9600141895 -0.8703261204 4.3285178828
78 2 6.9193785995 11.1814744645 2.3469600879
79 3 7.7427302412 10.8261589512 1.9667400193
80 3 7.1395527795 12.0987353533 2.6619417443
81 2 4.0172412960 7.0551163680 -1.2269948644
82 3 4.2147873645 6.3516440272 -0.4925881824
83 3 4.2338903316 7.8764838997 -0.7486409380
84 2 -0.4986879408 14.3413970894 8.7612410174
85 3 -0.4528808422 13.3491764404 8.7476635262
86 3 -1.2437925636 14.6060044766 8.2162968452
87 2 2.0953788256 4.8665614356 7.8733215622
88 3 1.3101098585 4.3912979329 8.1544823076
89 3 2.0593127346 5.8373443036 8.0902403961
90 2 4.5131476519 1.2534132948 4.5568731580
91 3 5.3143997861 1.6655402272 4.2553053493
92 3 4.6405061782 0.8049019638 5.4498893832
93 1 -0.2066679679 1.6188213860 1.2148308756
94 1 3.3537698454 4.1638293464 1.7161801483
95 2 -1.2360643592 2.8795629586 1.6973015462
96 3 -1.4834539059 2.8748540052 2.6649885790
97 2 -0.3846391336 1.3852860412 -0.5790966883
98 3 -1.2031507760 0.9470679750 -0.9166327115
99 2 -0.9016985646 0.0579812098 1.8069264694
100 3 -0.6731875015 -0.4387360828 2.5929746339
101 2 1.5493328551 2.3481383342 1.4662710739
102 3 1.2158352585 3.0801898773 1.9862566728
103 2 4.5343991732 5.2537838335 0.8136360413
104 3 5.1714436333 4.6547447691 0.3126325794
105 2 1.9898591748 4.3629032795 0.5260925899
106 3 2.2956894705 5.2360457848 0.1659930147
107 2 3.4404308217 5.4364153775 3.0903229450
108 3 3.5734111370 5.0036074493 3.9322389192
109 2 4.2903570824 2.5940000468 1.6957977855
110 3 4.1950744227 1.8648121700 2.3026483534
ITEM: TIMESTEP
4
ITEM: NUMBER OF ATOMS
110
ITEM: BOX BOUNDS pp pp pp
0 10.427942
0 10.427942
0 10.427942
ITEM: ATOMS id type x y z
1 4 -0.4171516147 4.9440583648 0.7738842799
2 4 2.9360658634 1.8499188197 -0.3820008736
3 2 3.2719750810 -0.0554380609 2.4297395416
4 3 2.5311091364 0.5605514838 2.5882191151
5 3 3.8480531925 0.0509140344 3.2029055376
6 2 0.3762030108 7.3529273954 10.7308009845
7 3 0.8030150539 7.7566259015 11.5002379667
8 3 1.0371943541 7.4635060319 10.0417412000
9 2 -1.7213447560 -3.3957815894 8.0578057863
10 3 -1.8746522612 -4.2881508167 8.4636200412
11 3 -2.5295992630 -3.2425208977 7.5804416154
12 2 1.7888583598 7.9800133970 2.9576487442
13 3 2.1871641052 7.1017127157 2.9817239279
14 3 2.4590837755 8.6539779162 2.7348748453
15 2 -5.4029572065 7.6429170292 4.1663287296
16 3 -5.7436416765 7.0874248507 3.4137213663
17 3 -4.5552984924 7.9917797320 3.9065354729
18 2 4.3480088645 3.0242952157 8.4036432342
19 3 3.6404975734 3.7271632004 8.2254319117
20 3 5.1225849151 3.5231986145 8.6955468413
21 2 -2.3470611491 8.9691639381 10.3108693125
22 3 -1.8210618291 8.4369777898 9.6798074165
23 3 -1.7358089463 9.2807677482 10.9731004231
24 2 5.9459217494 7.0855432790 7.3327246162
25 3 5.4825201012 7.2844693312 6.5317629277
26 3 5.2217981223 7.1139419578 7.9958475325
27 2 3.0547259245 3.4226594429 5.1257193235
28 3 3.2328632453 3.8996599129 5.9404605939
29 3 3.5585473758 2.6096131099 5.1871261131
30 2 -1.7279851083 1.6220002035 5.5822256690
31 3 -0.7783342623 1.7992384978 5.8851200147
32 3 -1.9182587015 0.6542840958 5.6919833646
33 2 1.0775544579 8.1014507548 -2.8078069230
34 3 1.4457321571 8.1797972215 -3.7340510655
35 3 0.2212126551 7.6324188831 -3.0576409653
36 2 1.6360253345 0.4265328797 8.6084423758
37 3 0.8265246573 0.6194506724 9.1346379338
38 3 1.5554653222 -0.4476910045 8.1506385503
39 2 0.8668814886 1.7652957201 6.3720566204
40 3 1.5124885427 2.4586876573 6.1119454925
41 3 1.0903145241 1.3636525364 7.2392791082
42 2 -5.5726566867 10.8023627200 -3.2546985665
43 3 -5.6444834417 11.6916449697 -2.7356046753
44 3 -4.7027271105 10.5543477185 -2.9738494458
45 2 -7.5909833881 -1.1350827726 5.6855106117
46 3 -7.0852674433 -0.5677978312 6.2512918095
47 3 -6.9442401757 -1.5716443198 5.0925292211
48 2 6.9456244645 4.6583905463 7.4642578179
49 3 6.7100198347 3.9174941705 6.9205642088
50 3 6.5005247371 5.4495007541 7.0751129836
51 2 7.0115919260 3.1512628142 4.2761631355
52 3 7.3236954939 4.1009927679 4.2418469528
53 3 7.7247273322 2.7210959539 4.8702938193
54 2 -3.7303546502 3.0007133928 0.3633560756
55 3 -2.8064751722 2.9639980313 0.6481881374
56 3 -4.3711410343 2.7220540279 1.0875928963
57 2 4.3137704430 10.0170845288 -0.2721334722
58 3 4.3659637225 10.1574733011 0.7133192250
59 3 5.2277619582 10.2095931191 -0.5867278288
60 2 8.3019927362 6.0486656658 4.2174615895
61 3 7.6322684681 6.5909495267 4.6596414852
62 3 8.3039958687 6.3123777288 3.2722313968
63 2 10.8520965989 4.9274947764 13.6530374276
64 3 11.7384089964 5.3161494635 13.7950359738
65 3 10.3359852107 5.3116448813 14.3658810295
66 2 0.1050235166 9.8230797573 4.5298167397
67 3 0.9634454848 9.3099676033 4.4578177172
68 3 0.2629109873 10.6917478676 4.9228953466
69 2 7.0354942074 11.1768400049 9.0244076390
70 3 6.7988188338 11.8221534557 9.7249655288
71 3 7.3936033045 10.3696978764 9.3932279060
72 2 18.3147800142 6.1674905182 1.1346762875
73 3 18.2823017157 7.1470364208 0.9089762913
74 3 17.4317356421 5.7732422230 1.0278857247
75 2 -2.9477786238 -1.2484137167 4.4496673339
76 3 -3.0735404630 -0.4634252904 3.8748997282
77 3 -2.0278638584 -1.4618984007 4.5057007732
78 2 6.9574183922 11.1949938670 2.3735260814
79 3 7.9216828106 11.1554398318 2.1311286830
80 3 6.9168105280 12.0191951310 2.8610643250
81 2 3.9769920500 7.0618845879 -1.2174513337
82 3 4.2102555629 6.4710948452 -0.3544359391
83 3 3.8632712336 7.9914801254 -0.8996546797
84 2 -0.4986209451 14.3395211559 8.7539392469
85 3 -0.4838688581 13.3626828788 8.8479258746
86 3 -1.1739749277 14.5712784071 8.0647344671
87 2 2.0712872898 4.8676311327 7.8820831590
88 3 1.1046124559 4.6989751258 8.0743810697
89 3 2.2427791079 5.7570231651 8.1845029055
90 2 4.5661855956 1.2293705481 4.4955567115
91 3 5.2956811756 1.9066249728 4.3310879142
92 3 4.7538697461 0.9294976642 5.4091960049
93 1 -0.0814503889 1.6324595915 1.2319033102
94 1 3.3099201271 4.1217446092 1.6709541734
95 2 -1.2395047889 2.8934161646 1.7361816757
96 3 -1.7027343861 2.9917972789 2.5469249013
97 2 -0.3013555745 1.4418371693 -0.5405103861
98 3 -1.1665199797 1.0267450356 -0.6289248121
99 2 -0.7223518979 0.1264750510 1.8022884913
100 3 -0.4928788753 -0.1202277190 2.7506817489
101 2 1.3881085458 2.4099820401 1.5230703557
102 3 1.2180463824 2.9967151399 2.3166906323
103 2 4.4613583147 5.0972064119 0.7586533612
104 3 5.2651258120 4.6739953903 0.5386989149
105 2 1.9996291594 4.4706756275 0.5433249733
106 3 2.1156925844 5.3147344710 0.1284754549
107 2 3.2746867503 5.2991113283 2.9935385404
108 3 3.2617295375 4.9792263238 3.9287921915
109 2 4.3169050383 2.6253716276 1.6785641004
110 3 4.3191653182 1.8011030897 2.1967019202
ITEM: TIMESTEP
5
ITEM: NUMBER OF ATOMS
110
ITEM: BOX BOUNDS pp pp pp
0 10.427942
0 10.427942
0 10.427942
ITEM: ATOMS id type x y z
1 4 -0.4943980377 4.9556815023 0.7474548590
2 4 3.0307369855 1.8529469540 -0.3925204748
3 2 3.2621427207 -0.0388260372 2.4023491950
4 3 2.3968382973 0.3363827904 2.6648127741
5 3 3.7714907921 -0.1398764502 3.2440246209
6 2 0.4363593311 7.3834066597 10.6577395282
7 3 0.9722539303 7.6825109959 11.4377862779
8 3 0.9426913548 7.6742022046 9.8565821531
9 2 -1.6778303675 -3.3829838759 8.0799141166
10 3 -1.7452792139 -4.2873720695 8.3863671002
11 3 -2.6429149216 -3.2153302273 7.8166130023
12 2 1.7783862446 7.9470933251 2.8778396342
13 3 2.2062683479 7.0465445593 2.8655200124
14 3 2.5573133610 8.5218528337 2.7474586136
15 2 -5.4759455031 7.5471771266 4.1883930002
16 3 -5.7525392499 6.9459196313 3.4875920688
17 3 -4.6252994192 7.9750114067 3.8791809546
18 2 4.4073644817 2.9848681804 8.4107850406
19 3 3.6744983533 3.6185611250 8.2774113379
20 3 5.1061087148 3.5659987808 8.7966525997
21 2 -2.2820355544 8.9363249808 10.3071452890
22 3 -1.8730054422 8.3310096505 9.6461568449
23 3 -1.5131017203 9.2464633633 10.8980444775
24 2 5.9611147059 7.1309103736 7.3399690394
25 3 5.4014532759 7.3480509542 6.5289590845
26 3 5.2561186670 7.0661275010 8.1014073467
27 2 2.9587021914 3.3751686283 5.2697056437
28 3 3.0286495057 3.8933394729 6.1057320719
29 3 3.5302701800 2.5533639932 5.2198004431
30 2 -1.7528354476 1.6207516887 5.5478430172
31 3 -0.8609605712 1.7071721352 5.9064083516
32 3 -1.9432773569 0.6752272225 5.4730944860
33 2 1.1517279487 8.1210334456 -2.7579839236
34 3 1.6836092958 8.2667274947 -3.5421821017
35 3 0.2506663079 7.8652371061 -2.9057594301
36 2 1.6161666415 0.4179795098 8.5651340311
37 3 0.8144110975 0.7300206003 9.0857020345
38 3 1.5126228346 -0.5273685108 8.3213416926
39 2 0.9146927844 1.7876381678 6.3415383598
40 3 1.2830244402 2.6858257876 6.2981152073
41 3 1.1825331259 1.3224875191 7.1661254475
42 2 -5.5544703718 10.9200577452 -3.2442442356
43 3 -5.7988134499 11.7477802294 -2.8764676750
44 3 -4.6972038475 10.7000299458 -2.7551616113
45 2 -7.5351590896 -1.1782099210 5.6868614000
46 3 -7.1925260690 -0.4699813496 6.3149440875
47 3 -6.7166619995 -1.6454912344 5.4354769663
48 2 6.9601077965 4.6210652780 7.4331037503
49 3 6.6644435626 3.8722439445 6.8692838794
50 3 6.2879125158 5.3120319345 7.2626998291
51 2 7.0240767345 3.1540444280 4.2332830068
52 3 7.0869081720 4.1265544942 4.1636662535
53 3 7.7894083082 2.8512375381 4.7299153134
54 2 -3.7524851946 3.0178189400 0.3978495842
55 3 -2.9059321624 2.9597390654 0.9403372668
56 3 -4.4621119123 2.8041269836 1.0248445711
57 2 4.1833434429 10.0728794621 -0.2368584021
58 3 4.2603595182 10.1058420381 0.7148641864
59 3 5.0585717987 10.2615611480 -0.5932189462
60 2 8.3309663110 6.0049602180 4.2944649312
61 3 7.5418943668 6.4842508873 4.5706348006
62 3 8.3173885546 6.1969113287 3.3292290712
63 2 10.8123005121 4.9100660765 13.6032902035
64 3 11.7764506704 5.1112711746 13.5081010484
65 3 10.4836684963 5.4394652847 14.3493039558
66 2 0.0567716980 9.8674432258 4.5384323488
67 3 0.7740392476 9.2477529042 4.6648855491
68 3 0.4742438034 10.6427250678 4.9761036840
69 2 7.0344036907 11.1708899933 8.9699856169
70 3 6.9472141566 11.9975116816 9.5036815648
71 3 7.4039570024 10.4298522545 9.5552500486
72 2 18.3246924908 6.1789576707 1.1619294147
73 3 18.1565377639 7.1021564232 0.9529539663
74 3 17.4691776360 5.7712230219 0.9648386732
75 2 -2.9736920211 -1.2702755766 4.4215708747
76 3 -2.8765488110 -0.7094638273 3.6092231828
77 3 -2.1108926460 -1.7888375456 4.5575128587
78 2 6.9975442148 11.1988737359 2.4345601493
79 3 7.9304521038 11.3456814426 2.2128589897
80 3 6.7726980082 11.9919233175 2.9849606097
81 2 3.9271678270 7.0474174346 -1.1912119857
82 3 4.1838198897 6.4644110010 -0.4609712928
83 3 3.7222873122 7.9529848190 -0.8932195429
84 2 -0.5141420715 14.3980398464 8.7082570823
85 3 -0.4611162048 13.5534673449 9.2321922362
86 3 -1.2339876059 14.1950152931 8.1168275849
87 2 2.0938752335 4.8583903190 7.8541258200
88 3 1.2293284471 4.7852674872 8.2780916517
89 3 2.4162843825 5.7377761254 8.2078388376
90 2 4.6603877238 1.2400525492 4.4709400351
91 3 5.3058343792 1.9436424093 4.3828940846
92 3 5.0593143357 0.7938932154 5.2689421535
93 1 -0.0758629188 1.6544613443 1.2311373273
94 1 3.2781731596 4.0811348788 1.5853239127
95 2 -1.2928618752 2.9225817518 1.7251209384
96 3 -1.6596597964 2.9172432266 2.6492207884
97 2 -0.2521356267 1.5061087226 -0.4843203050
98 3 -1.1064461067 1.1596950175 -0.8187639341
99 2 -0.5371183715 0.1379472910 1.8390014615
100 3 -0.2644834443 -0.1504180369 2.7229257254
101 2 1.4589666356 2.4327977648 1.7380733074