-470900.601 
-470899.377 
-470879.831 
-470870.575 
-470882.322 
-470895.984 
-470890.941 
-470889.474 
-470889.071 
-470884.227 
-470891.903 
-470900.043 
-470901.548 
-470886.024 
-470882.192 
-470888.110 
-470875.071 
-470897.300 
-470896.682 
-470895.054 
-470899.785 
-470899.987 
-470917.862 
-470916.671 
-470919.530 
-470900.658 
-470895.641 
-470896.082 
-470909.130 
