-470892.279 
-470883.753 
-470888.074 
-470898.002 
-470887.698 
-470889.800 
-470897.725 
-470903.374 
-470897.283 
-470893.557 
-470897.824 
-470889.991 
-470887.615 
-470892.263 
-470903.171 
-470901.351 
-470886.838 
-470891.205 
-470888.262 
-470891.619 
-470887.718 
-470880.951 
-470885.204 
-470888.139 
-470895.622 
-470895.083 
-470899.026 
-470893.008 
-470894.831 
-470906.538 
-470905.978 
-470900.648 
-470911.442 
-470917.960 
-470909.548 
-470910.888 
-470916.095 
-470903.473 
-470910.226 
