ITEM: TIMESTEP
0
ITEM: NUMBER OF ATOMS
110
ITEM: BOX BOUNDS pp pp pp
0 10.427000
0 10.427000
0 10.427000
ITEM: ATOMS id type x y z
1 4 -0.3927019435 4.6032471064 1.3596056794
2 4 3.7900618676 0.0970547833 0.9189305322
3 2 3.8295138233 -0.5261912289 3.9408646075
4 3 3.2135342995 -0.9398124705 4.6036611882
5 3 4.1873181174 0.2866936552 4.4322662422
6 2 0.5404036862 7.0533835961 10.4699199944
7 3 1.3129906762 7.0455731752 11.1451738104
8 3 0.9586160636 6.4918454636 9.8043226416
9 2 -2.3088002101 -3.3592706629 8.6247057590
10 3 -1.9948557278 -4.2163205644 9.0270476233
11 3 -3.1545515945 -3.6049394803 8.1159791938
12 2 2.9481868228 7.3143880741 1.4655508337
13 3 2.8358584124 7.3096889888 2.4197460341
14 3 3.2930049143 6.3871306336 1.2958472169
15 2 -6.0044315132 5.8339686157 4.8032450710
16 3 -6.5131535396 5.1111127820 4.2672407806
17 3 -5.4511953941 6.4627087165 4.2516883745
18 2 4.4065247524 1.7879048850 9.7487557993
19 3 4.0309887429 1.6647633644 8.8762555411
20 3 5.2460382413 2.2086859314 9.5904042475
21 2 -2.4358589589 7.9707415694 11.3764943525
22 3 -1.4786627746 7.7567523482 11.1541183400
23 3 -2.3547454865 8.5882971814 12.1291698480
24 2 5.6532252110 5.9027034451 7.0909523477
25 3 5.0961594807 6.0786645124 6.3744649668
26 3 5.1246219860 6.1037793647 7.8644228424
27 2 3.0828729984 3.3540956734 6.3074359263
28 3 3.0382504451 4.0518830767 6.9582971157
29 3 3.9905253611 2.9721858099 6.3128315334
30 2 -2.0564204434 1.2414858354 7.6163186555
31 3 -1.0807248023 1.3552354314 7.7579691486
32 3 -2.3991021178 0.5188764919 8.2039776072
33 2 -0.2732393598 6.7784564131 -3.7763681588
34 3 -0.1799866615 7.7421822434 -4.0185423295
35 3 -0.9341116240 6.8967442990 -3.0322646537
36 2 2.4446504870 -0.6603639090 9.4648873872
37 3 1.6513152964 -0.2495864399 9.8786829468
38 3 2.2333560595 -1.5810185136 9.6262609540
39 2 1.1221700074 1.2336844156 7.0907367569
40 3 1.7851478080 1.8554540205 6.7399445784
41 3 1.3932552396 1.1847956943 8.0574100598
42 2 -5.1234890209 9.4708725225 -3.3166719148
43 3 -4.3816916050 9.6174180650 -2.7030924259
44 3 -4.6959269055 8.8476423169 -3.9031725303
45 2 -7.6229911738 -2.6799038521 5.7811826260
46 3 -6.9444218672 -2.2297381144 6.3123431671
47 3 -7.1723137712 -3.4818759415 5.3810880091
48 2 6.5097208841 3.4452566659 8.3595711298
49 3 6.9333680862 2.6851444443 7.9011965180
50 3 6.3110118349 4.1206299679 7.6823262132
51 2 7.7195115117 1.6279613907 4.9263068442
52 3 7.8653942205 2.5920122841 5.0186709471
53 3 8.0489798936 1.2903708485 5.7673855937
54 2 -3.6088540906 1.2063305116 1.2031179635
55 3 -2.7807146279 1.6888785845 1.4725066913
56 3 -4.4533552824 1.6609278393 1.4873847039
57 2 5.3042642849 8.6177510262 0.7259279556
58 3 4.6838887243 8.0496568315 1.2054100497
59 3 6.1853714522 8.2503249654 0.8431922032
60 2 7.6921606539 4.4690779889 4.4274786609
61 3 7.1329653587 5.1121112419 4.8830517604
62 3 7.6168625524 4.7024439311 3.5031166308
63 2 11.3114581531 5.9984584203 13.6090523580
64 3 12.0181989575 5.3178594131 13.8835780957
65 3 10.9064143092 6.3867285326 14.4455423295
66 2 0.7699020931 9.3659525421 4.9890605429
67 3 1.3368906836 8.6690631579 5.2426793469
68 3 0.9732397092 10.0753657553 5.6307536620
69 2 7.1747426568 9.8489832529 9.1436247264
70 3 6.7404384177 10.1706031546 9.9879921717
71 3 7.6844184626 9.0595061662 9.5759502915
72 2 18.0002328399 5.0390859995 1.6092527350
73 3 18.0499911738 6.0066650461 1.3709133651
74 3 17.1345493420 4.7304056966 1.2592554621
75 2 -4.4500370245 -2.3638441969 4.6015701453
76 3 -5.1314285267 -1.6888684730 4.3128399168
77 3 -3.6649285951 -1.9783802407 4.1936236497
78 2 7.7662000318 9.6882264145 2.9988184577
79 3 8.4150601153 10.2295084477 3.5062781523
80 3 7.1825096737 10.3829210369 2.6090798668
81 2 4.3902088561 6.2601772563 -0.9525122417
82 3 4.4617984453 5.5382816960 -0.2156400673
83 3 4.8912734139 7.0117598583 -0.5905834948
84 2 -1.2550513392 14.6433205644 9.5410427908
85 3 -0.5587874077 14.0526013403 9.1821131148
86 3 -2.0342233424 14.1408431546 9.2052414897
87 2 2.0135378073 5.8654109185 8.2351373825
88 3 1.3967606528 6.3837720045 7.6871432807
89 3 2.8083027680 6.3956469771 8.3113984042
90 2 4.9040628042 1.5216425302 5.5486530612
91 3 5.8227328992 1.7754437845 5.3294564341
92 3 5.0690322058 0.6995671324 6.0798974208
93 1 0.2740100965 1.0565359111 1.5553707199
94 1 3.1956479485 3.3691673423 1.6111088540
95 2 -0.9449667660 2.1216493404 2.0959534874
96 3 -1.3398305820 2.0087280924 2.9933907545
97 2 0.1907179208 0.7965168143 -0.1785627543
98 3 -0.5806746079 0.3413392299 -0.4940681303
99 2 0.5638486468 -0.4912644941 2.2775426580
100 3 0.7631951082 -0.6821769719 3.1980036431
101 2 1.8856113103 1.9287560028 1.7842468750
102 3 2.2860918144 1.6814092770 2.6375446115
103 2 4.6906546212 4.3707726572 0.8348658483
104 3 5.0699292848 3.6910386928 0.2553879919
105 2 1.9719207312 4.1232134271 0.5272419833
106 3 2.1670232368 4.7809861343 -0.0950499631
107 2 2.8938249938 4.2277848414 3.2219582920
108 3 2.5834466501 3.5481204063 3.9135398209
109 2 4.3301111439 2.1015643700 2.2348260352
110 3 4.6690420877 2.4504976440 3.0555508762
ITEM: TIMESTEP
1
ITEM: NUMBER OF ATOMS
110
ITEM: BOX BOUNDS pp pp pp
0 10.427000
0 10.427000
0 10.427000
ITEM: ATOMS id type x y z
1 4 -0.3675793304 4.6337287256 1.3552328852
2 4 3.8056412733 0.0912327603 0.9219659277
3 2 3.8158433885 -0.4894796924 3.9565773834
4 3 3.2306348708 -0.9428656546 4.5584821310
5 3 4.1462899000 0.2630224291 4.4499290002
6 2 0.5551274499 7.0927646784 10.4768200675
7 3 1.3046694868 7.2012237032 11.1001798612
8 3 0.8884815661 6.5555971512 9.7025161276
9 2 -2.3354273268 -3.3746081196 8.6022721732
10 3 -2.0241302399 -4.2422119295 8.9117293541
11 3 -3.0600363003 -3.6782318164 8.0476070569
12 2 2.9592978648 7.3049065860 1.4975979638
13 3 2.7248668286 7.3192438991 2.4479135000
14 3 3.2286234444 6.4283064313 1.3219534761
15 2 -5.9728832477 5.9120882232 4.7637079235
16 3 -6.3668447277 5.2368454901 4.1386845913
17 3 -5.4405429743 6.5082245378 4.2748931512
18 2 4.3907028360 1.7957423028 9.7550667501
19 3 3.9732859397 1.6412163518 8.8753415597
20 3 5.2042987001 2.3049650649 9.5613954772
21 2 -2.4454333823 7.9889806266 11.3376979791
22 3 -1.4881651085 7.6183330934 11.1988941863
23 3 -2.2120792817 8.6471087607 12.0705198237
24 2 5.6718938324 5.8711444774 7.1308297613
25 3 5.0940233445 5.9947913816 6.3288486135
26 3 5.1581137862 6.0578608474 7.9804037866
27 2 3.0824155660 3.3710761789 6.2847046944
28 3 2.9720180425 4.0239030942 6.9791927276
29 3 3.9747948866 2.8832655782 6.3290401951
30 2 -2.0209592309 1.2360933331 7.6180224878
31 3 -1.0484733339 1.2488507377 7.7672928351
32 3 -2.2817405926 0.5047225781 8.2168857714
33 2 -0.3194074652 6.6987392501 -3.8098844353
34 3 -0.1194804112 7.6255427777 -4.1392382750
35 3 -0.8951931334 6.8632482730 -3.0482847065
36 2 2.4500172382 -0.6626175548 9.4894106297
37 3 1.6685784941 -0.0899208399 9.7570715944
38 3 2.0796335636 -1.5441024726 9.6637156323
39 2 1.1072692986 1.2033169693 7.1192280214
40 3 1.7433006490 1.8123080021 6.6822342874
41 3 1.4384873433 1.1255178656 8.0515408601
42 2 -5.0800958730 9.4669404930 -3.3773419314
43 3 -4.4610418612 9.6355789633 -2.5880882310
44 3 -4.6211830329 8.7953270273 -3.9849595169
45 2 -7.6167269576 -2.7111152518 5.7764359776
46 3 -6.8694147157 -2.3001161711 6.2605956794
47 3 -7.2349408820 -3.5392988592 5.4743500639
48 2 6.5497213604 3.4228979182 8.3756578457
49 3 6.9551863587 2.6779380963 7.8728221986
50 3 6.3480327338 4.1568758623 7.7402946153
51 2 7.7691647275 1.6179576843 4.9530206274
52 3 7.8877517948 2.5548549467 5.0520102049
53 3 8.2735777643 1.1847939407 5.6893243524
54 2 -3.6122441641 1.2119007441 1.1580125342
55 3 -2.9048226769 1.7827388820 1.4658441223
56 3 -4.4114549612 1.6884337683 1.5625562838
57 2 5.2558564677 8.6340676869 0.7578408173
58 3 4.6697446363 7.9808293508 1.2345380042
59 3 6.1125494432 8.1587676523 0.7806899946
60 2 7.6954659298 4.5248895574 4.4137733200
61 3 7.0440135064 5.1088806739 4.9269854088
62 3 7.6941811931 4.8150166565 3.4448366409
63 2 11.3296027192 6.0247223570 13.6378675277
64 3 11.9920848028 5.3311332318 13.8506066519
65 3 10.8658101502 6.3124337682 14.4549000578
66 2 0.7346232998 9.3946734160 5.0065531819
67 3 1.3970418419 8.6862518913 5.2834952829
68 3 1.0580652691 10.0223916032 5.6675317273
69 2 7.1668643868 9.8405621809 9.1575226117
70 3 6.7474314352 10.2161339777 9.9389626307
71 3 7.7156712117 9.1668850062 9.5046674435
72 2 17.9918193429 5.0069678547 1.5934672398
73 3 18.0065179398 5.9717975197 1.2710032661
74 3 17.1984795470 4.6986872847 1.1424803013
75 2 -4.4698242812 -2.3171817731 4.5751986832
76 3 -5.1739319728 -1.7503504914 4.2642330159
77 3 -3.7174486187 -2.1037896609 4.0098242764
78 2 7.7974654449 9.6995698433 2.9775961174
79 3 8.5542925400 10.0786430825 3.4408483930
80 3 7.2513088065 10.4729340929 2.5712354554
81 2 4.4124018769 6.2774702663 -0.9703331480
82 3 4.4353526767 5.5381664097 -0.2677967154
83 3 4.8813134071 7.0377949605 -0.6588153769
84 2 -1.2366592708 14.6379631414 9.5112579838
85 3 -0.5212405705 14.1536224907 9.0814012803
86 3 -2.0217055990 14.1333672305 9.3189348220
87 2 2.0199873380 5.9015494328 8.2348309203
88 3 1.4516978749 6.4280904388 7.5944738871
89 3 2.9477687820 6.2907018941 8.3398783154
90 2 4.9017664556 1.5207086332 5.5123205451
91 3 5.7705100891 1.8424748804 5.2407334704
92 3 5.1128398850 0.6782232248 5.9950594795
93 1 0.2924428105 1.0393477057 1.5948732964
94 1 3.1791899206 3.3325612133 1.5872861598
95 2 -0.9402515833 2.1340498701 2.1040575211
96 3 -1.4436083558 1.9432744426 2.9459392331
97 2 0.1964337897 0.7880437060 -0.1615260005
98 3 -0.6126262294 0.3003063098 -0.4005047007
99 2 0.5681189923 -0.4842478792 2.2986772009
100 3 0.6869171861 -0.8226764249 3.1912523242
101 2 1.9128293977 1.9116347362 1.7692919664
102 3 2.2320644640 1.6153852220 2.6121860785
103 2 4.6831229081 4.3453319134 0.8823667658
104 3 5.1107397304 3.6692712093 0.3820327971
105 2 1.9504774889 4.0923898724 0.5497508644
106 3 2.2375401461 4.7802979254 -0.1160287398
107 2 2.8805574464 4.2245644441 3.2071808814
108 3 2.5988821659 3.5295472148 3.8574173877
109 2 4.3363226964 2.0979695858 2.2305205853
110 3 4.6674507742 2.4177452740 3.0733954050
ITEM: TIMESTEP
2
ITEM: NUMBER OF ATOMS
110
ITEM: BOX BOUNDS pp pp pp
0 10.427000
0 10.427000
0 10.427000
ITEM: ATOMS id type x y z
1 4 -0.3163283801 4.6435719294 1.3699810347
2 4 3.8179300879 0.0825386127 0.9248436872
3 2 3.8027861222 -0.4640746499 3.9621558576
4 3 3.1804648475 -0.9680832878 4.4927009343
5 3 4.1071659662 0.3605572850 4.4086950475
6 2 0.5552877048 7.1300569249 10.4808055612
7 3 1.2846712709 7.3309702061 11.0340566379
8 3 0.8929853658 6.6865290204 9.6727937153
9 2 -2.3680057027 -3.4120473282 8.5764322843
10 3 -1.9886251363 -4.2401811352 8.9077855156
11 3 -3.0256315666 -3.6495644397 7.9067002252
12 2 2.9771708472 7.2978018200 1.5359566708
13 3 2.4942443954 7.2580703586 2.4134753254
14 3 3.1182339533 6.3403149734 1.3763827510
15 2 -5.9544027932 5.9755559765 4.7141077558
16 3 -6.2854697424 5.3445320659 4.0536453437
17 3 -5.3338948330 6.6511469137 4.2818946905
18 2 4.3767173205 1.8043280297 9.7564946169
19 3 3.9234865353 1.6340973111 8.8990437317
20 3 5.1465272809 2.3435631060 9.3931963806
21 2 -2.4183357388 8.0037793354 11.3081562947
22 3 -1.6557722516 7.5514442143 11.0362234282
23 3 -2.3058712717 8.6750956043 12.0346355368
24 2 5.7035476579 5.8451040634 7.1818760774
25 3 5.1272884120 5.7637112058 6.3168165533
26 3 5.1455933849 5.9443851412 8.0085822548
27 2 3.0683975664 3.3795666838 6.2579660351
28 3 2.9848400132 3.9995342025 7.0308365173
29 3 3.8845581612 2.8996053422 6.3760645496
30 2 -1.9673026215 1.2264648546 7.6294246301
31 3 -1.0158217308 1.2588404597 7.6792012793
32 3 -2.3407901565 0.5062693115 8.2130191675
33 2 -0.3579687456 6.6304149806 -3.8483078302
34 3 -0.1166233492 7.4418685393 -4.2601713007
35 3 -0.9519766738 6.8357766816 -3.1043985364
36 2 2.4412411473 -0.6638158063 9.5185932881
37 3 1.6807446024 -0.0187854694 9.5948843347
38 3 1.9565970275 -1.5249042567 9.6554771800
39 2 1.1029192997 1.1763050700 7.1463661482
40 3 1.6610082979 1.8557049533 6.6966384830
41 3 1.4430991465 1.0224728546 8.0047904580
42 2 -5.0354415101 9.4655299262 -3.4434909909
43 3 -4.6118259090 9.5226730190 -2.5760529315
44 3 -4.5144826103 8.8593021108 -4.0188661791
45 2 -7.6125053604 -2.7335711054 5.7832127537
46 3 -6.8703669024 -2.3448510485 6.2815726816
47 3 -7.2443551737 -3.6297723278 5.4240539780
48 2 6.5903145628 3.3967539235 8.3952459859
49 3 7.0352203762 2.7447547990 7.8324759214
50 3 6.3483566641 4.1650016139 7.8267396263
51 2 7.8188630867 1.6102058380 4.9691332071
52 3 7.9808508850 2.6011509355 5.0482088917
53 3 8.3832322110 1.1844619405 5.6789508704
54 2 -3.6312179566 1.2302900180 1.1235726304
55 3 -2.8724490625 1.8363741466 1.3031839874
56 3 -4.4233449584 1.5978409326 1.5515130561
57 2 5.2094735671 8.6281770238 0.7929002097
58 3 4.5397480146 8.0541571355 1.2371983177
59 3 6.1221782883 8.2499404136 0.7139041651
60 2 7.7008166379 4.5803081725 4.4050907000
61 3 7.0122509045 5.0898217702 4.8637412201
62 3 7.6341146255 4.9057713230 3.4781956333
63 2 11.3324489403 6.0557988880 13.6661042636
64 3 12.0257431182 5.3239971125 13.8017021121
65 3 10.8881993109 6.1332579129 14.4911251470
66 2 0.7135080663 9.4138845229 5.0513042277
67 3 1.3882895187 8.6194422998 5.1266986885
68 3 0.9174223523 10.1604838064 5.6780848834
69 2 7.1617254774 9.8390460383 9.1753395726
70 3 6.7971137379 10.3579802031 9.9069397581
71 3 7.7035484916 9.0739567791 9.4446090335
72 2 17.9842676675 4.9949480017 1.5613222291
73 3 17.9702893582 5.9009377632 1.3050229331
74 3 17.1618007545 4.5913476430 1.1722151560
75 2 -4.4862945710 -2.2765849344 4.5453565728
76 3 -5.2414315490 -1.6810116644 4.1776824506
77 3 -3.7665294130 -2.1242149604 3.8474869888
78 2 7.8271982790 9.7117438300 2.9556206222
79 3 8.6635742180 9.9617283457 3.3464788474
80 3 7.4481794729 10.4810347268 2.5382788838
81 2 4.4389022191 6.2855233253 -0.9847676086
82 3 4.5714813844 5.5354168875 -0.3206140109
83 3 4.8294246843 7.1290262150 -0.6418430763
84 2 -1.2158204700 14.6338143173 9.4780466595
85 3 -0.4764984434 14.2676447773 8.9733696574
86 3 -2.0736431124 14.1499537302 9.3853283361
87 2 2.0139181710 5.9321991401 8.2401981275
88 3 1.6549016387 6.3981473414 7.4696468218
89 3 2.9241706798 6.2553361730 8.3938669903
90 2 4.9061976464 1.5120577348 5.4826430090
91 3 5.8070272159 1.8034043629 5.1307441814
92 3 5.1923355794 0.7376779347 6.0257065036
93 1 0.3238296304 1.0220760193 1.6238821074
94 1 3.1629654827 3.3144816503 1.5634027682
95 2 -0.9612306726 2.1591435392 2.1223882506
96 3 -1.4290076025 1.9522308950 2.9254142623
97 2 0.1922986020 0.7817137433 -0.1530610907
98 3 -0.6127247903 0.2444387208 -0.3383704811
99 2 0.5692916959 -0.4872438634 2.3201592563
100 3 0.5879533340 -0.8302465234 3.2511878343
101 2 1.9370162464 1.8912213733 1.7589323462
102 3 2.2195256480 1.3726330340 2.5676539473
103 2 4.6591430024 4.3237686214 0.9300264614
104 3 5.2018456336 3.6752891590 0.4602965450
105 2 1.9217206144 4.0736089110 0.5566447706
106 3 2.3135376593 4.6682520732 -0.1604002307
107 2 2.8655439319 4.2190626211 3.1939077839
108 3 2.6961484765 3.6411712263 3.8990989996
109 2 4.3656071103 2.0746938720 2.2363656342
110 3 4.6892769907 2.3701841992 3.1121116293
ITEM: TIMESTEP
3
ITEM: NUMBER OF ATOMS
110
ITEM: BOX BOUNDS pp pp pp
0 10.427000
0 10.427000
0 10.427000
ITEM: ATOMS id type x y z
1 4 -0.2722738126 4.6301428602 1.3946473165
2 4 3.8255823598 0.0680508912 0.9161659643
3 2 3.7931854399 -0.4461889767 3.9468568602
4 3 3.1171788003 -0.8962775002 4.5187136197
5 3 3.9889942277 0.4154052357 4.4342307662
6 2 0.5307347671 7.1668026447 10.4788841767
7 3 1.3518892965 7.4318375374 11.0020685617
8 3 0.9869849858 6.8018905249 9.7008923093
9 2 -2.3953209767 -3.4484763966 8.5509884702
10 3 -2.0254839660 -4.3065831832 8.8975769579
11 3 -3.0311607011 -3.7025607498 7.8042328826
12 2 2.9826695873 7.2791533071 1.5939535262
13 3 2.2919055995 7.2656365905 2.2870350814
14 3 3.0199334754 6.2738536301 1.3796774907
15 2 -5.9289132038 6.0259773960 4.6565480147
16 3 -6.2721030174 5.3982840545 3.9356258887
17 3 -5.2992808765 6.7728262061 4.4003230457
18 2 4.3633824906 1.8221977544 9.7306564708
19 3 3.7902464852 1.5624039682 9.0162199410
20 3 5.0955243773 2.3063830375 9.3266061220
21 2 -2.4149811799 8.0072938922 11.2705248915
22 3 -1.5824655337 7.6621649705 10.9064664851
23 3 -2.2204792657 8.6001047863 12.0371151511
24 2 5.7468053917 5.8047619612 7.2260149622
25 3 5.2229966261 5.5884775218 6.4843523630
26 3 5.1172731610 5.9043105002 7.9410925081
27 2 3.0354658937 3.3906121431 6.2410569299
28 3 2.9733210934 3.9875374978 7.0213798610
29 3 3.8466874286 2.8874441615 6.3333295432
30 2 -1.9149197461 1.2206724998 7.6408022489
31 3 -0.9400247337 1.2198400760 7.6930849075
32 3 -2.3149765746 0.5073149120 8.1887186721
33 2 -0.3852761825 6.5531142631 -3.8911703576
34 3 -0.1870360917 7.3816113338 -4.3384026200
35 3 -1.0362446749 6.9166717664 -3.2157998423
36 2 2.4232954655 -0.6655344357 9.5479447399
37 3 1.6473838236 -0.0562822364 9.6222957923
38 3 1.9003804924 -1.4842958102 9.6183377603
39 2 1.0925472774 1.1538168057 7.1574244076
40 3 1.6084523475 1.9351968363 6.8552634799
41 3 1.4973589770 0.9343242123 7.9990962256
42 2 -5.0032813219 9.4685380097 -3.5148737580
43 3 -4.6556256593 9.3676862336 -2.6208433949
44 3 -4.3897519138 8.9748780527 -4.0312071884
45 2 -7.6134823686 -2.7592979924 5.7957601389
46 3 -6.9025462176 -2.3714388252 6.3219411372
47 3 -7.1632057621 -3.4967480951 5.3099432881
48 2 6.6279969183 3.3667807924 8.4239170012
49 3 7.1672648421 2.8261680963 7.8138450612
50 3 6.3589559621 4.1620867221 7.9175719508
51 2 7.8753891745 1.6143816719 4.9690390332
52 3 8.0880469012 2.5847110722 5.0064316403
53 3 8.3022585443 1.2693715543 5.7525718114
54 2 -3.6512594695 1.2433889178 1.0938643960
55 3 -2.8593158719 1.8543148385 1.0898497435
56 3 -4.5087919664 1.6037157763 1.5495285464
57 2 5.1606988608 8.6194067590 0.8161953331
58 3 4.5618801683 8.0242534714 1.2783583488
59 3 6.0706438929 8.2943224766 0.7972069908
60 2 7.7048190171 4.6388209551 4.3978960586
61 3 7.0104812104 5.0690278489 4.8436097666
62 3 7.5608356132 4.8799472127 3.4893430937
63 2 11.3343493896 6.0825590003 13.6976988632
64 3 12.0662764427 5.3522336079 13.6695739996
65 3 10.8968378818 5.9340163520 14.5642213777
66 2 0.6819414658 9.4178091413 5.0905401022
67 3 1.3867539119 8.8165592491 5.1923691102
68 3 0.8437224047 10.1366043491 5.7374770876
69 2 7.1555112808 9.8491370976 9.1789661821
70 3 7.0054549999 10.3965380349 10.0193362298
71 3 7.5317509147 8.9556377790 9.5785695911
72 2 17.9817266387 4.9826095917 1.5278163445
73 3 17.8498466996 5.9293249292 1.3292849988
74 3 17.0869140491 4.5835899717 1.3567020192
75 2 -4.5108455050 -2.2337981965 4.4891527706
76 3 -5.2069206386 -1.5865673030 4.2292470114
77 3 -3.8012811300 -2.0464552892 3.8444464785
78 2 7.8575554139 9.7200502930 2.9323272856
79 3 8.7792778775 9.8944297992 3.2417457301
80 3 7.6192278966 10.5512688810 2.4663144379
81 2 4.4684047603 6.2858523326 -0.9906751008
82 3 4.7189305977 5.5979530391 -0.2666267686
83 3 4.7154835074 7.1642455880 -0.5787252226
84 2 -1.1924239256 14.6459650599 9.4556031406
85 3 -0.5710778265 14.2430482451 8.8089854792
86 3 -1.9994706652 14.0786653841 9.2585155806
87 2 2.0004886639 5.9508734185 8.2456525796
88 3 1.8520728978 6.3375441176 7.3778958882
89 3 2.8553130153 6.2715666406 8.5010731917
90 2 4.9304890644 1.4963233244 5.4590151111
91 3 5.8008697073 1.7072066559 5.0573274003
92 3 5.2004241783 0.7958872592 6.1124523039
93 1 0.3507656036 1.0209150923 1.6321463305
94 1 3.1418331582 3.2988031527 1.5607580089
95 2 -0.9803363645 2.1821300369 2.1371643520
96 3 -1.3801968937 2.0170233785 2.9894039821
97 2 0.1790972235 0.7780984619 -0.1487724257
98 3 -0.5636583739 0.2017417461 -0.3477676073
99 2 0.5707367954 -0.5123047819 2.3521938847
100 3 0.5176168232 -0.6724962717 3.3114975743
101 2 1.9483560189 1.8512287687 1.7655759841
102 3 2.3901349364 1.2295316386 2.4185215887
103 2 4.6472514451 4.3274160544 0.9565521596
104 3 5.2695855986 3.6647020133 0.5617044464
105 2 1.8936854360 4.0708133544 0.5396924437
106 3 2.2719890531 4.5071274418 -0.1984317194
107 2 2.8514064068 4.2194959834 3.1764027834
108 3 2.8339967676 3.7498559685 4.0360255614
109 2 4.4076119827 2.0390297447 2.2464404408
110 3 4.6931222255 2.3354894268 3.1275500224
ITEM: TIMESTEP
4
ITEM: NUMBER OF ATOMS
110
ITEM: BOX BOUNDS pp pp pp
0 10.427000
0 10.427000
0 10.427000
ITEM: ATOMS id type x y z
1 4 -0.2262950031 4.6132629879 1.4239838182
2 4 3.8382576822 0.0556441279 0.9136758574
3 2 3.7795985681 -0.4300908061 3.9250325802
4 3 3.0954610223 -0.8429162533 4.4813988233
5 3 3.9706352783 0.3850023403 4.4024811138
6 2 0.5165651433 7.2065516102 10.4732829865
7 3 1.2453948137 7.5344450446 11.0678673714
8 3 0.9195160838 6.8086816791 9.6501891448
9 2 -2.4219881293 -3.4866657659 8.5176700163
10 3 -2.1204655468 -4.3544328676 8.8464621961
11 3 -3.0663931008 -3.8132400156 7.8605790941
12 2 2.9686513572 7.2423852983 1.6561540877
13 3 2.2045477035 7.3546461460 2.2334493365
14 3 2.9980876317 6.3295447319 1.3654056561
15 2 -5.9042719093 6.0574989998 4.6067876635
16 3 -6.2046963229 5.5988285197 3.7860867514
17 3 -5.3147652927 6.7981032986 4.3660464591
18 2 4.3364051437 1.8403538669 9.7027710835
19 3 3.6871062131 1.5067954039 9.0723253344
20 3 5.0853208388 2.2437661570 9.2158586285
21 2 -2.4167792695 7.9953805404 11.2355884945
22 3 -1.4714829771 7.8951237048 10.8052120655
23 3 -2.1252334250 8.4962203057 12.0430015854
24 2 5.7967580294 5.7532261971 7.2607457487
25 3 5.2897362867 5.4941060097 6.4688315987
26 3 5.1403041565 5.9976696181 8.0207383408
27 2 2.9934304298 3.3990445579 6.2400102750
28 3 2.9598346165 4.0118579301 6.9676529564
29 3 3.8636951661 2.8545400279 6.2088068631
30 2 -1.8616847879 1.2218460100 7.6471512293
31 3 -0.8770710994 1.1115774456 7.8019149994
32 3 -2.2036810718 0.4668343780 8.1681387002
33 2 -0.4137443922 6.4909956863 -3.9352991868
34 3 -0.1906524233 7.3043758603 -4.4964370823
35 3 -1.0660869996 6.8304804399 -3.3045473762
36 2 2.3923437946 -0.6684312789 9.5755187589
37 3 1.6048577646 -0.0689912689 9.8472767681
38 3 1.9702764896 -1.5238246733 9.5581635796
39 2 1.0838622305 1.1432849128 7.1642061633
40 3 1.5363304896 1.9868103798 6.9782096055
41 3 1.5200512213 0.7820801228 8.0022874484
42 2 -4.9801262576 9.4708858938 -3.5789648111
43 3 -4.6771488510 9.3226044006 -2.6333036570
44 3 -4.2924419825 9.0682155799 -4.1794641929
45 2 -7.6227532349 -2.7792398957 5.8145097124
46 3 -6.9268218821 -2.3544361137 6.3695838543
47 3 -7.0495245071 -3.3397150291 5.1902992110
48 2 6.6581314162 3.3341413624 8.4551854390
49 3 7.2635110060 2.8629121486 7.8363168960
50 3 6.3927606707 4.1954129055 8.0059027213
51 2 7.9355511737 1.6334724887 4.9592281881
52 3 8.1103610981 2.5639155819 4.9337202057
53 3 8.1302013717 1.3428800506 5.8967398512
54 2 -3.6711834969 1.2427700931 1.0646208291
55 3 -2.9890308733 1.9196618661 1.0260038202
56 3 -4.4035519736 1.7304109490 1.5098816311
57 2 5.1123480411 8.6090446572 0.8289735955
58 3 4.6509844245 7.9328974812 1.4078373921
59 3 6.0285927732 8.3115648088 0.9611284081
60 2 7.7121778478 4.6942838941 4.3940000061
61 3 6.9584403121 5.0872773726 4.8993385063
62 3 7.5137557299 4.7886771956 3.4109436686
63 2 11.3362780100 6.0953335027 13.7312605586
64 3 12.0553479298 5.4373201706 13.6093057543
65 3 10.9178533476 5.7888955491 14.5976791364
66 2 0.6411888124 9.4239940982 5.1301446186
67 3 1.4641283223 8.8763929445 5.3514625473
68 3 0.7733962484 10.0868834078 5.8233005385
69 2 7.1537674797 9.8545402571 9.2041917840
70 3 7.1483083509 10.4082846048 9.9977801231
71 3 7.3117503871 8.9925425548 9.5774642431
72 2 17.9726839593 4.9736977809 1.4991599541
73 3 17.7531607974 5.9637995298 1.3428369134
74 3 17.0631516156 4.6526626468 1.5898858872
75 2 -4.5338792698 -2.1898518585 4.4242513753
76 3 -5.1994969591 -1.4772067287 4.3079017891
77 3 -3.7904499492 -1.9089454823 3.9004978541
78 2 7.8954200625 9.7303820125 2.9121621878
79 3 8.8467301627 9.7931728632 3.1666710462
80 3 7.6804000829 10.5761260443 2.3671727269
81 2 4.5020073624 6.2882924433 -0.9752673930
82 3 4.6684817357 5.6233814662 -0.2498374845
83 3 4.6015727830 7.1670658081 -0.6080681506
84 2 -1.1710105328 14.6515882539 9.4216390531
85 3 -0.5767901206 14.3265693437 8.7305657385
86 3 -1.9680430596 14.1590234643 9.2518145872
87 2 1.9863263712 5.9649698792 8.2500913107
88 3 1.9569160828 6.3040842449 7.3060472398
89 3 2.8531821450 6.2551513118 8.6808730180
90 2 4.9695976044 1.4765471726 5.4481803048
91 3 5.8332842705 1.6076434382 5.0394061425
92 3 5.1444975633 0.8142618129 6.1593785521
93 1 0.3596381829 1.0350996902 1.6245245848
94 1 3.1170792847 3.2834013578 1.5837094122
95 2 -0.9770492065 2.1873216123 2.1471827173
96 3 -1.3099893027 2.1067598038 3.0897264334
97 2 0.1668629530 0.7765658818 -0.1482129931
98 3 -0.5205599780 0.1635323143 -0.3945842866
99 2 0.5708588125 -0.5447340906 2.3920112373
100 3 0.5593880614 -0.5201813683 3.3633203962
101 2 1.9678866464 1.7921775255 1.7833178412
102 3 2.5709363057 1.2838918740 2.3106072563
103 2 4.6586367239 4.3577455542 0.9586959489
104 3 5.2481144444 3.6520659165 0.6639339191
105 2 1.8781077614 4.0757588796 0.5146573917
106 3 2.1780718150 4.4117819152 -0.3080085401
107 2 2.8345811536 4.2213005913 3.1541471913
108 3 2.9739629132 3.8811419121 4.1060596830
109 2 4.4542559875 1.9951926064 2.2497320548
110 3 4.6799237343 2.3082013043 3.1200791666
ITEM: TIMESTEP
5
ITEM: NUMBER OF ATOMS
110
ITEM: BOX BOUNDS pp pp pp
0 10.427000
0 10.427000
0 10.427000
ITEM: ATOMS id type x y z
1 4 -0.1912453807 4.5989491609 1.4470332382
2 4 3.8504304642 0.0667764961 0.9107484077
3 2 3.7589315498 -0.4200062836 3.8972913241
4 3 3.0629238012 -0.8515651901 4.3843149868
5 3 4.0683808888 0.4000506852 4.3604232931
6 2 0.4931125487 7.2485625736 10.4635097471
7 3 1.1566243129 7.5620908333 11.0414070435
8 3 0.8513035236 6.7981842147 9.6794511988
9 2 -2.4520936275 -3.5302081345 8.4798455191
10 3 -2.1126182554 -4.3307565863 8.9087612597
11 3 -3.1702371749 -3.8131790756 7.9172440641
12 2 2.9521525816 7.2094924132 1.7083980652
13 3 2.1818883839 7.3360251627 2.3278676755
14 3 2.8956895225 6.3075815156 1.4301610169
15 2 -5.8841896954 6.0806172439 4.5559692432
16 3 -6.1897838158 5.7635004529 3.7082898875
17 3 -5.2494634924 6.8469819761 4.2784824721
18 2 4.3054114633 1.8522792966 9.6829530074
19 3 3.6568412146 1.5053820155 9.0154462651
20 3 5.0495271830 2.1530874897 9.0870328916
21 2 -2.3948340693 7.9815621410 11.2024342236
22 3 -1.5952012870 7.9511692848 10.6756681214
23 3 -2.2703149899 8.4543579754 12.0484691024
24 2 5.8434770632 5.6957721214 7.2941891672
25 3 5.3016330076 5.5430733525 6.4281671280
26 3 5.2779134438 6.0625361470 8.0225104262
27 2 2.9472086261 3.3947768791 6.2399776270
28 3 3.0566139384 4.0532109317 6.9389420572
29 3 3.8159847585 2.9519329435 6.1584900394
30 2 -1.8016367380 1.2141531024 7.6576288020
31 3 -0.8436739065 1.1613151770 7.7764574189
32 3 -2.2513766790 0.4421163078 8.1122899147
33 2 -0.4365903887 6.4419814249 -3.9867359343
34 3 -0.2134332850 7.1749005657 -4.5895330732
35 3 -1.0914476231 6.7281772708 -3.3418880058
36 2 2.3526351068 -0.6594860813 9.6011008907
37 3 1.5817606327 -0.2092580198 10.0449480822
38 3 2.0628116738 -1.5888632005 9.4778569964
39 2 1.0773772306 1.1364551213 7.1770865072
40 3 1.5082436795 1.9980551955 7.0315538489
41 3 1.4947512364 0.6600934989 7.9224018631
42 2 -4.9602701504 9.4731459632 -3.6308389897
43 3 -4.6038694175 9.3957923995 -2.7193475095
44 3 -4.2856560327 9.1132667875 -4.2737944257
45 2 -7.6348824204 -2.7904439733 5.8390448008
46 3 -6.9956904397 -2.3091109211 6.4040523868
47 3 -7.0461344277 -3.2362918378 5.1263059194
48 2 6.6848358344 3.3035396863 8.4847539063
49 3 7.2866623174 2.8435792713 7.8757241495
50 3 6.4508038516 4.1594406386 8.0814078694
51 2 7.9883673394 1.6546864228 4.9490273336
52 3 8.0698708415 2.6372190885 4.9103070887
53 3 8.0025340118 1.4793463825 5.9503573059
54 2 -3.6774111107 1.2473753812 1.0356944137
55 3 -2.9902323492 1.9196912503 0.9932983080
56 3 -4.4587217858 1.6863281402 1.4956751581
57 2 5.0806520654 8.5730102108 0.8506743992
58 3 4.5801994892 8.0109626881 1.5041072209
59 3 6.0508714860 8.4999700050 1.0078724920
60 2 7.7239095593 4.7392265126 4.3928444899
61 3 6.9197257042 5.1257880063 4.8579349664
62 3 7.4867857646 4.7457337796 3.4324529920
63 2 11.3285638121 6.0961591509 13.7630433327
64 3 12.1258442899 5.4445913855 13.6545607807
65 3 10.9340598389 5.7855544200 14.5833918590
66 2 0.6176882277 9.4278884775 5.1829856034
67 3 1.3959977820 8.7579701744 5.4079229356
68 3 0.5608263598 10.1514993355 5.8478642428
69 2 7.1488321645 9.8590414630 9.2313926712
70 3 7.1046932189 10.4826075370 9.9772129230
71 3 7.2292647510 8.9673245181 9.5347765348
72 2 17.9496403397 4.9753812176 1.4742899893
73 3 17.8923937208 5.9249176974 1.3107954749
74 3 17.0492786266 4.6700051185 1.7204336718
75 2 -4.5435228257 -2.1389356020 4.3618025183
76 3 -5.2529319229 -1.3889781814 4.3018510121
77 3 -3.7369172996 -1.7138221178 3.9240648366
78 2 7.9365176536 9.7372870084 2.8903009612
79 3 8.8707313415 9.7715245432 3.1039511619
80 3 7.7021807041 10.4993007042 2.3592140994
81 2 4.5276932174 6.2894463128 -0.9533139799
82 3 4.5584737487 5.5572732522 -0.1973036024
83 3 4.5759094036 7.1791780543 -0.5720589812
84 2 -1.1470507289 14.6612193507 9.3887733249
85 3 -0.5234922316 14.4513253093 8.6905237714
86 3 -2.0266468069 14.2541993933 9.3047297927
87 2 1.9781634825 5.9816076049 8.2591535193
88 3 2.0416013086 6.3518726761 7.3524551313
89 3 2.8522540592 6.1696603302 8.7117777432
90 2 5.0050206537 1.4647357505 5.4518247939
91 3 5.9495508245 1.5089333900 5.0901691228
92 3 5.1129740768 0.7733750927 6.1436018935
93 1 0.3484156735 1.0485783670 1.6145687729
94 1 3.0994998768 3.2805968416 1.6187051808
95 2 -0.9470930494 2.1745262131 2.1576845614
96 3 -1.1924364193 2.1463613047 3.1075793047
97 2 0.1656401433 0.7761680177 -0.1495236757
98 3 -0.5147121495 0.1247491306 -0.4183771302
99 2 0.5621717132 -0.5604269318 2.4241046955
100 3 0.7051289383 -0.4878805883 3.4118529802
101 2 2.0042998687 1.7399537366 1.7969152513
102 3 2.6413300782 1.3033087010 2.4207169391