-470989.590 
-470994.643 
-470997.171 
-470996.191 
-471000.902 
-471001.028 
-471001.621 
-471001.535 
-471003.046 
-471001.552 
-471000.365 
-470995.195 
-470995.636 
-470996.196 
-470995.953 
-470992.744 
-470995.753 
-470993.995 
-470994.044 
-470993.163 
-470991.629 
-470992.567 
