0
4.719
10.135
1.448
13.841
8.368
15.906
2.77
-3.781
5.683
8.077
-6.786
5.906
8.648
25.119
24.866
10.903
21.999
-0.674
9.694
21.011
37.604
31.772
27.829
34.81
40.488
29.247
23.102
26.386
31.247
12.299
28.514
28.696
30.368
28.086
26.053
46.282
34.351
20.489
24.771
28.311
18.698
36.669
20.655
27.616
44.518
29.302
34.955
26.869
33.966
27.632
25.795
17.678
19.985
18.185
25.277
25.125
3.364
27.739
27.867
19.49
33.822
18.732
28.117
19.14
60.922
44.953
48.189
37.895
32.476
38.279
38.935
26.157
24.699
27.529
25.027
21.756
9.861
-0.678
17.785
