ITEM: TIMESTEP
0
ITEM: NUMBER OF ATOMS
110
ITEM: BOX BOUNDS pp pp pp
0 10.427942
0 10.427942
0 10.427942
ITEM: ATOMS id type x y z
1 4 -1.6983005199 4.7891159015 0.6945133964
2 4 2.8586379884 1.6984875281 -0.3104283821
3 2 2.8595173605 -0.5432205605 2.0123758265
4 3 1.9526792019 -0.2162242278 2.1497863011
5 3 3.3855459638 -0.0878151475 2.7039135367
6 2 0.4589108223 6.3307128804 10.6591736204
7 3 0.7944491834 6.7872761341 11.4663823574
8 3 0.6525195311 6.9312744712 9.9092885309
9 2 -1.8588830186 -3.4719790985 7.9556415729
10 3 -1.4881432932 -4.3657564817 8.1611201654
11 3 -2.7188255335 -3.6350775671 7.5071359800
12 2 1.5451444467 7.2643220177 2.6326762331
13 3 2.1049542631 6.4806618209 2.8636464653
14 3 2.1694685637 8.0061774956 2.5003793891
15 2 -5.7240810414 6.9505111529 4.4843237843
16 3 -6.1450336909 6.2533647364 3.9167914308
17 3 -5.1170307454 7.4511250607 3.9193963539
18 2 4.6276212563 2.7789862271 8.2690637076
19 3 4.1361246799 3.5207708690 7.8765879718
20 3 5.5760739804 3.0225333908 8.1609960308
21 2 -2.4676614478 8.3481937663 10.2808640765
22 3 -2.1447222765 7.8645736563 9.4767624282
23 3 -1.6801874022 8.7370956804 10.7397547355
24 2 5.9530670869 6.0995791122 6.8817284489
25 3 5.5995061429 6.4279464562 6.0226278561
26 3 5.2777115799 6.3315673826 7.5525644374
27 2 2.1637750680 3.3222112166 5.1017584640
28 3 2.3075785837 3.6457139575 6.0089062753
29 3 2.6893387877 2.4961804412 5.0211747659
30 2 -2.7770965358 1.3905615353 5.7132405203
31 3 -1.7931078792 1.2277332784 5.6488890870
32 3 -3.1628000002 0.4864250253 5.7004321495
33 2 0.7746585771 8.1136381598 -2.0905716249
34 3 1.4591523057 8.1857199856 -2.7965290031
35 3 -0.0650488520 7.9401219806 -2.5582379880
36 2 1.0075631818 0.7704316572 8.2569053187
37 3 0.5119051953 1.1123879437 9.0459164528
38 3 0.9663070457 -0.2014805791 8.3597656925
39 2 -0.1521695621 0.7689063100 5.5629638190
40 3 0.3474557179 1.2009370941 4.8302246758
41 3 0.3284508875 0.9244180457 6.4072437844
42 2 -5.5672733879 10.5138013836 -3.5527397049
43 3 -5.7699735609 11.3462966822 -3.0795947146
44 3 -4.7145258776 10.2448919478 -3.1608528837
45 2 -7.7225668817 -1.7080809460 6.3323710400
46 3 -7.0323491679 -1.1229799300 6.7118901612
47 3 -7.2223139375 -2.2812400316 5.7212548888
48 2 7.3322992556 3.5508428797 7.4139332137
49 3 7.3901187711 2.7893313439 6.7877807783
50 3 6.9693448631 4.3210954404 6.9304410205
51 2 6.4075246791 2.9335530224 3.8594158398
52 3 6.5168217047 3.8533054355 4.1529011371
53 3 6.9064068594 2.3878354931 4.5239939628
54 2 -3.4822119709 2.7802047725 0.0030699440
55 3 -2.9443622508 2.3194709099 0.7252577781
56 3 -4.3995478172 2.6221033769 0.2948141380
57 2 3.8659921655 9.7324718004 -0.6903659479
58 3 3.7608380940 9.6350357283 0.2795430750
59 3 4.8146947588 9.9145034714 -0.8426799285
60 2 8.1097055072 5.7168739742 4.4004329715
61 3 8.5325819722 6.4373344418 4.9004769455
62 3 7.7352336777 6.1550912261 3.6084927446
63 2 9.8092950891 4.2520023121 13.1375578586
64 3 10.3589450744 3.5163027875 13.4742701983
65 3 9.3973084627 4.6831094373 13.9174604150
66 2 -0.3892375738 8.2656586986 4.7849152270
67 3 0.3065479136 7.9136215145 4.1926187677
68 3 -0.0543955414 9.1275570716 5.1073683011
69 2 6.8667794837 10.6523982126 8.8858545795
70 3 7.0564156639 11.5193246557 9.2983475759
71 3 7.3402812861 9.9730682890 9.4097354881
72 2 17.4629476466 6.4884206129 1.7008244692
73 3 17.7239093085 7.1380209429 1.0004166579
74 3 16.5902050786 6.0938295005 1.4214256952
75 2 -3.3928733920 -1.3880321410 5.1014534717
76 3 -3.7091847771 -1.1735497240 4.1961364991
77 3 -2.4574660359 -1.6340993215 4.9746915427
78 2 6.1121076724 9.5889340832 2.4668360389
79 3 6.4397895620 8.8474164385 1.9288969166
80 3 6.7252155407 10.3204935225 2.2454063256
81 2 3.9409490980 6.6448569568 -1.3917273115
82 3 4.2469200510 6.2420214011 -0.5375028900
83 3 3.7830144289 7.5941441582 -1.2192725022
84 2 -0.8503126868 14.9096118684 8.6609490826
85 3 0.0755726944 14.8062673959 8.3707151063
86 3 -1.4420953791 14.3450137960 8.1101930224
87 2 2.0817280682 5.0157402358 7.7177963625
88 3 1.7392156272 5.6918457441 7.1108607625
89 3 2.6416731674 5.5539946404 8.3303925627
90 2 3.9396534416 1.0856528485 4.4011979516
91 3 4.6689648600 1.7153312382 4.2408507433
92 3 4.2667396300 0.5572831653 5.1624488531
93 1 -0.4308919696 1.0702008977 1.7102478766
94 1 3.5222953162 4.2123107670 1.5541272457
95 2 -2.0846969352 1.6907711487 1.9341544930
96 3 -2.2902306562 2.3125013895 2.6504101254
97 2 0.3067272388 1.7037242181 0.2313469734
98 3 0.6201029507 2.6241878571 0.3285342871
99 2 -0.6076853924 -0.6878292971 1.5438201362
100 3 -0.6019476954 -1.2106773114 2.3592773628
101 2 0.6908671693 1.6229573536 3.0062699687
102 3 1.5778703332 1.9210670596 2.7612506441
103 2 4.8561814648 5.1795766028 0.7734448526
104 3 5.3928244357 4.5988497226 0.2102920659
105 2 2.1610749197 4.0117672882 0.4628221958
106 3 1.6091786721 4.7968538200 0.2630483893
107 2 3.2425089644 5.0267776838 3.0907097744
108 3 2.8374528101 4.4832834394 3.8045344782
109 2 4.0963640769 2.5436721314 1.6185788610
110 3 4.8161156932 2.3687640326 2.2411451885
ITEM: TIMESTEP
1
ITEM: NUMBER OF ATOMS
110
ITEM: BOX BOUNDS pp pp pp
0 10.427942
0 10.427942
0 10.427942
ITEM: ATOMS id type x y z
1 4 -1.2359112168 4.6351135458 0.8487866930
2 4 3.0904380477 1.5436967779 -0.2331795103
3 2 3.0892733886 -0.6962828184 2.0853040978
4 3 2.1353873112 -0.4911172312 2.0731825244
5 3 3.4759844949 -0.1630356900 2.8126646395
6 2 0.7687605485 6.2563077847 10.6622741462
7 3 1.0911754126 6.7256971869 11.4679140519
8 3 0.9268609095 6.8676793722 9.9124882865
9 2 -1.6984738740 -3.5459741293 8.1097850117
10 3 -1.3079540232 -4.4323947848 8.2991974840
11 3 -2.5428991797 -3.7166764103 7.6294053920
12 2 1.7764653554 7.1824523177 2.7077685015
13 3 2.3155222688 6.3783083334 2.9202203051
14 3 2.4274237366 7.9051386874 2.5985948555
15 2 -5.4910350693 6.8728756173 4.5594445338
16 3 -5.8987831582 6.1851060504 3.9729845047
17 3 -4.9079543031 7.4098820371 4.0016021297
18 2 4.8576071379 2.7021696995 8.3460308235
19 3 4.3388212335 3.4212666053 7.9473595249
20 3 5.7981804362 2.9536607568 8.1846215542
21 2 -2.2325845168 8.3476577749 10.3574264800
22 3 -1.9576583398 7.8197059112 9.5575261105
23 3 -1.4085463748 8.6975807000 10.7766382754
24 2 6.2576407530 6.0989383108 6.9570254133
25 3 5.8971368329 6.4002852989 6.0915432636
26 3 5.5569856746 6.2930408710 7.6165060209
27 2 2.4715473217 3.2447259108 5.1752432985
28 3 2.6163471944 3.5569469647 6.0855487045
29 3 2.9934461888 2.4189031519 5.0751114539
30 2 -2.5362964305 1.3145424499 5.6412407920
31 3 -1.5513355833 1.1696537849 5.6120432658
32 3 -2.9042220777 0.3989142983 5.6093367142
33 2 1.0031748961 8.1107261561 -2.0876905780
34 3 1.6714691384 8.1112287148 -2.8125267158
35 3 0.1491882233 7.9113208412 -2.5170282804
36 2 1.3156759835 0.6946076996 8.2601775264
37 3 0.7898856415 1.0416466271 9.0257858039
38 3 1.2370492943 -0.2775603721 8.3513291121
39 2 0.1520566891 0.6918249582 5.5623805621
40 3 0.6351556283 1.1356260763 4.8263981391
41 3 0.6351750041 0.8588035149 6.4018716557
42 2 -5.3396729807 10.5089003959 -3.5526486351
43 3 -5.5492953750 11.3231140489 -3.0511381409
44 3 -4.4767197521 10.2411517509 -3.1834358392
45 2 -7.4878679632 -1.8587634608 6.3327065080
46 3 -6.8297259440 -1.2329216614 6.7004972712
47 3 -6.9579076310 -2.4231279029 5.7371541405
48 2 7.4907974278 3.4730125949 7.4164587127
49 3 7.5771135186 2.7383957012 6.7656944906
50 3 7.1629288225 4.2681334466 6.9478550262
51 2 6.6376656106 2.8567937224 3.8561824904
52 3 6.7544122859 3.7816023639 4.1284099579
53 3 7.1422954481 2.3166116404 4.5230655717
54 2 -3.2455374064 2.7010208689 0.0797476862
55 3 -2.7282591459 2.1982228306 0.7759970080
56 3 -4.1686735302 2.5694373158 0.3663993099
57 2 4.1740484564 9.5796441664 -0.6139931658
58 3 4.1105019344 9.4867694514 0.3590177161
59 3 5.1084944221 9.7980563294 -0.8058838181
60 2 8.3384234329 5.6429904005 4.4041831458
61 3 8.7541943031 6.3879621407 4.8735545256
62 3 7.9842529266 6.0413081025 3.5812775402
63 2 10.1203398115 4.1699369383 13.3586780456
64 3 10.6523600659 3.3996835438 13.6529670575
65 3 9.6605499181 4.5583078158 14.1312937619
66 2 -0.1583211070 8.1886252746 4.7861952228
67 3 0.5410921819 7.8193856783 4.2069152080
68 3 0.1885298732 9.0457683966 5.1090822443
69 2 7.0996969663 10.5783061276 8.8870150249
70 3 7.2606921348 11.4471477872 9.3072330155
71 3 7.5772806894 9.9131618536 9.4264947284
72 2 17.6975661741 6.4040633822 1.7032957685
73 3 17.9598294936 7.0678571125 1.0210283858
74 3 16.8283013963 6.0170175502 1.4189251259
75 2 -3.1624406705 -1.3906930329 5.0996478610
76 3 -3.4318329289 -1.2110323576 4.1675085458
77 3 -2.2361241510 -1.6867282928 5.0211894106
78 2 6.4972902614 9.5900617511 2.4664176870
79 3 6.7964169929 8.8796937525 1.8739633502
80 3 7.1195989792 10.3270849224 2.2731219506
81 2 4.1719834222 6.5665440961 -1.3941430839
82 3 4.4453788125 6.1491085698 -0.5334694142
83 3 4.0336958628 7.5179164040 -1.2124872490
84 2 -0.6197826013 14.8298546697 8.7348107157
85 3 0.2886962445 14.7437442864 8.3891958841
86 3 -1.2226160546 14.2685932392 8.1964511236
87 2 2.3157182526 4.9421210813 7.6468674609
88 3 1.9945103590 5.5821460146 6.9913742405
89 3 2.8706025211 5.5061851111 8.2422327528
90 2 4.1702975280 1.0069043528 4.4024055149
91 3 4.9013196874 1.6232389207 4.2041889452
92 3 4.5083300911 0.5100783842 5.1829515376
93 1 -0.1491195634 0.9891691626 1.7278516249
94 1 3.7175929346 4.1138191083 1.5748078299
95 2 -1.8490385651 1.4645605148 2.0080976202
96 3 -2.0685076988 2.0887685756 2.7193629373
97 2 0.5362048780 1.6323867018 0.2322905049
98 3 0.9224554846 2.5260826491 0.3507543048
99 2 -0.1481610246 -0.7721034109 1.5471428686
100 3 -0.2783515187 -1.2842583592 2.3601283769
101 2 0.9295889375 1.6263888438 3.0108920959
102 3 1.8552635721 1.8041493426 2.7939863340
103 2 5.0145473567 5.1025505638 0.7707110143
104 3 5.5585450661 4.5322776582 0.2042062684
105 2 2.3171511709 3.8622696940 0.5365894558
106 3 1.8338738256 4.6730100878 0.2723550744
107 2 3.4717937403 4.9485407743 3.1010890949
108 3 3.0835138820 4.4115545710 3.8289024019
109 2 4.3290177028 2.4613300377 1.6219873380
110 3 5.0472256383 2.2861935328 2.2461425844
ITEM: TIMESTEP
2
ITEM: NUMBER OF ATOMS
110
ITEM: BOX BOUNDS pp pp pp
0 10.427942
0 10.427942
0 10.427942
ITEM: ATOMS id type x y z
1 4 -1.0052612181 4.8663878765 0.6941789026
2 4 3.0138184093 1.3908344061 -0.4635512285
3 2 3.0883626695 -0.7720336335 2.0081278078
4 3 2.1295697583 -0.5886524921 1.9479127777
5 3 3.4431032560 -0.1928250151 2.7151186814
6 2 0.8502053179 6.3388402861 10.5856345909
7 3 1.1651112056 6.7995341019 11.3973084778
8 3 0.9984997513 6.9582853192 9.8375722659
9 2 -1.6983150968 -3.5454881298 8.0326334921
10 3 -1.3017412030 -4.4325425083 8.2025655076
11 3 -2.5407471900 -3.7211620680 7.5508600970
12 2 1.7773461960 7.1798973255 2.7795622482
13 3 2.3090526445 6.3545637877 2.9232404126
14 3 2.4433607350 7.8886337231 2.6684256970
15 2 -5.4906663885 6.8728985209 4.4833740202
16 3 -5.8752316212 6.1905320630 3.8771701704
17 3 -4.8608152331 7.3974711033 3.9653185041
18 2 4.7851384956 2.7013196312 8.3414737352
19 3 4.2971455487 3.4445911155 7.9484744740
20 3 5.7335880385 2.9278449916 8.2036167454
21 2 -2.1607332353 8.4212069532 10.2796091460
22 3 -1.9073055844 7.8738414193 9.4896621404
23 3 -1.3283013277 8.7527304027 10.6961498527
24 2 6.2587272161 6.0242177469 6.8784309369
25 3 5.8875674659 6.3393381589 6.0231558410
26 3 5.5837864521 6.2409440895 7.5610444368
27 2 2.4714833664 3.2437270143 5.0988079779
28 3 2.6367902834 3.5521337211 6.0065963498
29 3 2.9986641610 2.4225857270 4.9840640187
30 2 -2.5390960128 1.3128269186 5.5642406341
31 3 -1.5553662133 1.1731775027 5.5348717571
32 3 -2.9006485153 0.3944589266 5.5323011567
33 2 1.0035895850 8.1118297929 -2.1655877999
34 3 1.6823481353 8.1131658142 -2.8824296303
35 3 0.1579829322 7.8896638463 -2.6015218732
36 2 1.3131994155 0.6920506930 8.1817206148
37 3 0.7497355044 1.0613432663 8.9128127392
38 3 1.1902797178 -0.2779668814 8.2555216105
39 2 0.1542244678 0.6936402186 5.4821149569
40 3 0.6252386478 1.1579969160 4.7539548636
41 3 0.6397206280 0.8674992232 6.3182758124
42 2 -5.4125731500 10.5098448283 -3.6283832470
43 3 -5.6160016229 11.3315340661 -3.1373237291
44 3 -4.5462335822 10.2467197681 -3.2611921743
45 2 -7.4898957611 -1.8600037839 6.2556276663
46 3 -6.8328902528 -1.2290441377 6.6181669318
47 3 -6.9607454277 -2.4257477564 5.6605929444
48 2 7.4909806430 3.4720946065 7.3430298417
49 3 7.5638449792 2.7384622873 6.6919978739
50 3 7.1293594327 4.2635650030 6.8908214536
51 2 6.6376916777 2.8558604162 3.7785187579
52 3 6.7641698174 3.7801416842 4.0480162071
53 3 7.1501543920 2.3168355988 4.4388478980
54 2 -3.3262131644 2.6256925758 -0.0008107722
55 3 -2.7570899376 2.1738106820 0.6790168417
56 3 -4.2302776436 2.4839302090 0.3424478250
57 2 4.1765076682 9.5779374199 -0.6912615435
58 3 4.1235169607 9.4728548281 0.2817602829
59 3 5.1067946705 9.8187131930 -0.8882623225
60 2 8.3409819959 5.6401243252 4.3238865200
61 3 8.7841055655 6.3760514820 4.7820921869
62 3 7.9830226535 6.0438433171 3.5060151036
63 2 10.1189139766 4.1708766345 13.1408660275
64 3 10.6760021074 3.4031156266 13.4079559336
65 3 9.6720780832 4.5257963778 13.9362049614
66 2 -0.1595294374 8.1887838752 4.7100167123
67 3 0.5548508713 7.8035844999 4.1566110374
68 3 0.1863574341 9.0449175051 5.0335707990
69 2 7.0223459166 10.5772318913 8.8107375110
70 3 7.1549985253 11.4470884333 9.2460740648
71 3 7.5471435346 9.9307135862 9.3294050385
72 2 17.6984119359 6.4058784010 1.6232522940
73 3 17.9269680581 7.1044164590 0.9697372978
74 3 16.8256848484 6.0249737344 1.3504102144
75 2 -3.1649256167 -1.3900241866 5.0197570404
76 3 -3.3786580931 -1.1729025043 4.0779950809
77 3 -2.2439013613 -1.7081810289 4.9776562881
78 2 6.6480185977 9.7392321750 2.3910454736
79 3 6.9001670526 9.0644236142 1.7402240302
80 3 7.3001459143 10.4678504691 2.2282322419
81 2 4.3205812026 6.5661673459 -1.4746347320
82 3 4.5187272627 6.1254309295 -0.6004692123
83 3 4.1652266466 7.5130122114 -1.2865131962
84 2 -0.6202675772 14.8306714051 8.6553294666
85 3 0.2704747759 14.7188398624 8.2748129191
86 3 -1.2599961866 14.2799541398 8.1436677842
87 2 2.3184274663 4.9439885416 7.5712772886
88 3 2.0258022593 5.5841685957 6.9023801384
89 3 2.8917308982 5.4946802192 8.1577456985
90 2 4.1701665205 1.0093649584 4.3225770452
91 3 4.9165846729 1.6164583322 4.1483394558
92 3 4.4854570728 0.4993053018 5.1040044693
93 1 -0.1398540055 1.0084225230 1.5982697981
94 1 3.7163017585 4.0649359104 1.4968888033
95 2 -1.8498836487 1.3917132144 1.9340878588
96 3 -2.0595303854 2.0763233173 2.5923465342
97 2 0.4605718765 1.6995607056 0.0824207235
98 3 0.9134783369 2.5598149629 0.2263503098
99 2 -0.0667328531 -0.7651026891 1.4654553758
100 3 -0.2450575977 -1.2456957637 2.2896664723
101 2 0.9284386653 1.6990766743 2.8596508058
102 3 1.8682178918 1.8107292811 2.6585469331
103 2 4.9590363577 5.0982866583 0.6908493666
104 3 5.5526570178 4.5265871801 0.1747354090
105 2 2.3112225535 3.8580414390 0.4565551293
106 3 1.8885907140 4.6915660508 0.1721699695
107 2 3.4725085159 4.9377443636 3.0177284151
108 3 3.0935211545 4.4096324588 3.7564973467
109 2 4.3214334352 2.3950537546 1.4694217687
110 3 4.9674885423 2.1316471005 2.1384717845
ITEM: TIMESTEP
3
ITEM: NUMBER OF ATOMS
110
ITEM: BOX BOUNDS pp pp pp
0 10.427942
0 10.427942
0 10.427942
ITEM: ATOMS id type x y z
1 4 -1.0819114662 4.5580067473 0.7716718630
2 4 3.1668347364 1.5430806033 -0.1574168365
3 2 3.0900595743 -0.7727444617 2.0830002888
4 3 2.1224781953 -0.6279240868 1.9816856235
5 3 3.4062904416 -0.2002471266 2.8111653592
6 2 0.8464351571 6.3311186874 10.6632939771
7 3 1.1324131966 6.7851658690 11.4875495613
8 3 0.9990454422 6.9610204040 9.9265154323
9 2 -1.6993904602 -3.5441532468 8.1107549750
10 3 -1.3041914124 -4.4273633304 8.3034255995
11 3 -2.5350489713 -3.7267527544 7.6209662119
12 2 1.7756778264 7.1822315469 2.8574792304
13 3 2.2889659886 6.3495484936 3.0086326124
14 3 2.4531658961 7.8798440678 2.7468146476
15 2 -5.5641229778 6.8746876594 4.5621990820
16 3 -5.9374854095 6.1839999795 3.9563921885
17 3 -4.9229098246 7.3909062699 4.0496374392
18 2 4.7852795848 2.7021496969 8.4209962631
19 3 4.2809675269 3.4306563256 8.0203761612
20 3 5.7287940430 2.9350234946 8.2606026883
21 2 -2.1561273227 8.4216657405 10.3550358174
22 3 -1.9290997123 7.8646541340 9.5599936960
23 3 -1.3019677443 8.7304392786 10.7310678743
24 2 6.2574823804 6.0235144461 6.9545965614
25 3 5.8722595727 6.3332356970 6.1042264988
26 3 5.5873154236 6.2382507516 7.6428581240
27 2 2.4720726752 3.2441477216 5.1769422415
28 3 2.6267665260 3.5468567479 6.0885861945
29 3 2.9984240710 2.4220646261 5.0655398787
30 2 -2.5378591215 1.3128048955 5.6405464349
31 3 -1.5524865589 1.1728746453 5.6086451086
32 3 -2.8983693849 0.3935201852 5.6083389077
33 2 1.0037412544 8.1117923294 -2.0882047533
34 3 1.6819863935 8.1243634215 -2.8052876423
35 3 0.1604631898 7.8877149149 -2.5266615691
36 2 1.2395533603 0.6964937817 8.1891823190
37 3 0.7563087850 1.0975434604 8.9562899421
38 3 1.1619798383 -0.2687889834 8.3369869131
39 2 0.1525115904 0.6939631419 5.5591579035
40 3 0.6476648597 1.1861673716 4.8695235328
41 3 0.6025092071 0.8405180803 6.4252800502
42 2 -5.4130455742 10.5090993327 -3.5514391086
43 3 -5.6389470266 11.3091634196 -3.0360120000
44 3 -4.5435186746 10.2524776037 -3.1886170910
45 2 -7.4905857990 -1.8598802128 6.3329903250
46 3 -6.8289685042 -1.2356389406 6.6977751870
47 3 -6.9690774955 -2.4255615794 5.7306073869
48 2 7.4904714846 3.4714847684 7.4206067264
49 3 7.5650665854 2.7364108686 6.7709525185
50 3 7.1318821113 4.2627852144 6.9653536733
51 2 6.6383810169 2.8549635519 3.8555667438
52 3 6.7761162904 3.7807638084 4.1157148139
53 3 7.1442114952 2.3162299630 4.5223675990
54 2 -3.3209429314 2.6252799186 0.1538446307
55 3 -2.7472632120 2.1381372991 0.8084539086
56 3 -4.2181648574 2.5049838272 0.5194522239
57 2 4.1742807398 9.5795609195 -0.6129957514
58 3 4.1035512798 9.4600796797 0.3577137396
59 3 5.1104212787 9.8048653617 -0.7947623256
60 2 8.3408383473 5.6396935015 4.4011281559
61 3 8.7720262317 6.3827153850 4.8593774730
62 3 8.0084582479 6.0315427061 3.5666743579
63 2 10.2716825556 4.2509672387 13.2859882940
64 3 10.8030957736 3.4612213793 13.5448578068
65 3 9.7871912155 4.5786010885 14.0690345868
66 2 -0.1597191519 8.1888998175 4.7877203534
67 3 0.5522841992 7.8023200005 4.2321120835
68 3 0.1874757291 9.0456956291 5.1081049424
69 2 7.0228398245 10.5784823289 8.8884778440
70 3 7.1540427828 11.4457717809 9.3252575482
71 3 7.5560382357 9.9349174678 9.4016160623
72 2 17.6990781332 6.4042842254 1.7021363209
73 3 17.9661763852 7.0799023486 1.0407456726
74 3 16.8240967142 6.0416425246 1.4182681950
75 2 -3.1648745473 -1.3899499500 5.0979977994
76 3 -3.3864550654 -1.1755166494 4.1583190959
77 3 -2.2438849414 -1.7082227023 5.0486841255
78 2 6.6489320772 9.7381618006 2.4673131941
79 3 6.8775871225 9.0335449868 1.8390261020
80 3 7.3259687442 10.4351285224 2.2880080317
81 2 4.3202341449 6.5671356592 -1.3981156992
82 3 4.5100571446 6.1351288342 -0.5197741777
83 3 4.1549065182 7.5143067629 -1.2188533317
84 2 -0.6204555607 14.8305996941 8.7317060361
85 3 0.2798333911 14.7428324771 8.3661774578
86 3 -1.2389684248 14.2837020736 8.1919737692
87 2 2.3183793029 4.9439868943 7.6484441901
88 3 2.0315566341 5.5817709901 6.9744852379
89 3 2.8878171757 5.4976183265 8.2357823293
90 2 4.1693284138 1.0083696138 4.4019871442
91 3 4.9226179201 1.6088859713 4.2406069475
92 3 4.4685239934 0.4988273081 5.1905178159
93 1 -0.0428994041 1.0591923896 1.6856022118
94 1 3.7126502664 4.0846713774 1.5949177331
95 2 -1.7716641633 1.3914533614 2.0126687437
96 3 -2.0069981426 1.9974199543 2.7353857097
97 2 0.4638365739 1.7787715587 0.1552679776
98 3 0.9754704812 2.6082797859 0.2900543722
99 2 0.1563068381 -0.6962120011 1.5446064846
100 3 -0.0784867018 -1.2076724853 2.3355247824
101 2 1.0058004281 1.7771143735 2.9382400488
102 3 1.9646033824 1.7937221874 2.8132876732
103 2 4.9542792390 5.0980736887 0.7696727946
104 3 5.5388244528 4.5309006259 0.2397535952
105 2 2.3175693307 3.8609148951 0.5374393236
106 3 1.8880780000 4.6973293584 0.2619178320
107 2 3.4705248457 4.9401888556 3.1096835861
108 3 3.0871869944 4.4088686375 3.8450733416
109 2 4.3241537412 2.4075496230 1.6270847728
110 3 4.9860696247 2.1976172476 2.3005430075
ITEM: TIMESTEP
4
ITEM: NUMBER OF ATOMS
110
ITEM: BOX BOUNDS pp pp pp
0 10.427942
0 10.427942
0 10.427942
ITEM: ATOMS id type x y z
1 4 -0.8504400522 4.6349411524 0.6946842002
2 4 3.1672274993 1.3898521383 -0.3869588939
3 2 3.0903731016 -0.7728191522 2.0071189899
4 3 2.1241820609 -0.6325956764 1.8890296117
5 3 3.3888598448 -0.1945833205 2.7383198150
6 2 0.8494950947 6.3357744973 10.5829669881
7 3 1.1658278619 6.7917205607 11.3987190007
8 3 0.9977252233 6.9571742527 9.8376732521
9 2 -1.6985633012 -3.4741396163 8.1092746794
10 3 -1.3076222101 -4.3638379285 8.2808183372
11 3 -2.5411846565 -3.6526608880 7.6315573614
12 2 1.7764843823 7.1805718052 2.7049698716
13 3 2.2940895003 6.3551394693 2.8831585489
14 3 2.4489062184 7.8875706069 2.6189587829
15 2 -5.6391703775 6.8742684364 4.5615245241
16 3 -5.9746996067 6.2025749516 3.9147311599
17 3 -4.9742136989 7.4145465727 4.1057000970
18 2 4.7098655101 2.7012302927 8.2671418718
19 3 4.2014590972 3.4598824998 7.9312754034
20 3 5.6548043208 2.9506293103 8.1512731786
21 2 -2.0831446569 8.4984551116 10.3568681906
22 3 -1.8748523106 7.9310436843 9.5674208852
23 3 -1.2235364166 8.8175438786 10.7166508961
24 2 6.2560629944 6.0251616559 6.9551966655
25 3 5.8807028390 6.3166899174 6.0954930786
26 3 5.5567309738 6.2273404142 7.6175368390
27 2 2.4720470200 3.2441184310 5.1008558777
28 3 2.6469522521 3.5335761912 6.0126143160
29 3 2.9874585888 2.4170504411 4.9747507990
30 2 -2.5465045190 1.3177436954 5.5601072032
31 3 -1.5646398404 1.1682990525 5.5123794042
32 3 -2.9178820648 0.4061474427 5.5405281665
33 2 1.0039664696 8.1129316131 -2.1648284795
34 3 1.6811550164 8.1262823624 -2.8840282380
35 3 0.1558048777 7.8920167983 -2.5947595193
36 2 1.1644760219 0.6931137897 8.1114895012
37 3 0.7186854281 1.1064047707 8.8979986978
38 3 1.0734679701 -0.2721735044 8.2564701892
39 2 0.1529242467 0.6948890115 5.4787758582
40 3 0.6647231788 1.2046075550 4.8154947740
41 3 0.5750310791 0.8360286083 6.3604237699
42 2 -5.4126153228 10.5096493293 -3.6290590617
43 3 -5.6388648103 11.3389129433 -3.1619279875
44 3 -4.5716600536 10.2445666038 -3.2104151022
45 2 -7.4928358158 -1.8596256889 6.2565444364
46 3 -6.8336946331 -1.2287536174 6.6132257244
47 3 -6.9680477770 -2.4418675824 5.6712869407
48 2 7.4887971508 3.4697532487 7.4154965238
49 3 7.5718303224 2.7514204294 6.7478885204
50 3 7.1424765431 4.2706097004 6.9670194769
51 2 6.4896431735 2.8512177754 3.7097311786
52 3 6.5574127235 3.7813996945 3.9815107015
53 3 7.0459716794 2.3491699757 4.3589992075
54 2 -3.3247825234 2.5486899827 0.0789017162
55 3 -2.7214108991 2.1461075262 0.7605952902
56 3 -4.2052552276 2.4795524924 0.4973101681
57 2 4.3218213069 9.5025796883 -0.6160216615
58 3 4.2425672354 9.4162867770 0.3554838516
59 3 5.2436249320 9.7980849119 -0.8019807947
60 2 8.2641991485 5.6373582636 4.3253797329
61 3 8.6585590350 6.4073723615 4.7687092840
62 3 7.9808055779 5.9830643812 3.4504175604
63 2 10.2716098020 4.2509431794 13.2863289246
64 3 10.8355396902 3.4864691562 13.5522199307
65 3 9.7675479749 4.5756239739 14.0576481435
66 2 -0.2331062043 8.2665483107 4.5558270748
67 3 0.4951828013 7.8221158646 4.0704887671
68 3 0.1491034002 9.0904954214 4.9212634425
69 2 6.8736343580 10.5754858995 8.9638865654
70 3 7.0218927918 11.4551405771 9.3848105647
71 3 7.5032608782 9.9651434763 9.4049590456
72 2 17.8499383559 6.2510775491 1.6196407322
73 3 18.0665676242 7.0273305464 1.0614808766
74 3 16.9443098230 5.9549763656 1.3597252335
75 2 -3.1671189630 -1.4661237829 5.0197855703
76 3 -3.3423609793 -1.2302885643 4.0749987989
77 3 -2.2352416190 -1.7525551138 4.9959301355
78 2 6.8017225406 9.7416207551 2.3895019677
79 3 7.0787196001 9.1433736607 1.6753131046
80 3 7.4277376113 10.5002075061 2.2955173837
81 2 4.1717967725 6.5658541754 -1.4703540569
82 3 4.4216069336 6.1336149533 -0.6072473186
83 3 4.0982432202 7.5250015666 -1.2836455107
84 2 -0.6197293411 14.8338667868 8.6543412476
85 3 0.2609996702 14.7375851245 8.2466394823
86 3 -1.2723148434 14.2969872826 8.1435779923
87 2 2.3172453754 4.9431758567 7.5697222771
88 3 2.0532135434 5.5427935596 6.8531752274
89 3 2.8545579587 5.5350801794 8.1552474957
90 2 4.1671913241 1.0069437645 4.3236303957
91 3 4.9066464085 1.6234759180 4.1537280458
92 3 4.4851369342 0.4897071476 5.0977384611
93 1 0.0205282803 1.0932096411 1.6259798215
94 1 3.7016212603 4.0732134072 1.4883876408
95 2 -1.6909243229 1.4669911529 2.0073687939
96 3 -1.8550362660 2.1379458947 2.6884526479
97 2 0.5390362543 1.7765332735 0.0803385237
98 3 1.0621327954 2.6061830240 0.1964410466
99 2 0.1581083604 -0.6813141129 1.4720601892
100 3 -0.0936718767 -1.1732691354 2.2724268769
101 2 1.0808944469 1.8454205010 2.8574063255
102 3 2.0392151092 1.8283925091 2.7232329650
103 2 4.9546285998 5.0985657180 0.6899335972
104 3 5.5257931786 4.5391883027 0.1375510084
105 2 2.3227419511 3.8621430452 0.3888571547
106 3 1.9341379981 4.7077269607 0.0866917556
107 2 3.4694933964 4.9375383585 3.0151217623
108 3 3.0780516842 4.4081058206 3.7465239764
109 2 4.3142887434 2.4013594086 1.5392776403
110 3 4.9634808177 2.1984515720 2.2271074191
ITEM: TIMESTEP
5
ITEM: NUMBER OF ATOMS
110
ITEM: BOX BOUNDS pp pp pp
0 10.427942
0 10.427942
0 10.427942
ITEM: ATOMS id type x y z
1 4 -1.2360781101 4.8662868763 0.7713242590
2 4 3.0905018831 1.5433376916 -0.3877936066
3 2 3.0905838255 -0.7742095281 2.0090061783
4 3 2.1274782315 -0.6346555522 1.8683356433
5 3 3.3719773683 -0.1677713895 2.7227645252
6 2 0.6979007545 6.3407425867 10.5900930409
7 3 1.0434543407 6.7779232564 11.4023303277
8 3 0.8889611053 6.9606425903 9.8536917338
9 2 -1.6982018811 -3.4716434901 8.1121757469
10 3 -1.3158018015 -4.3652257286 8.2706500862
11 3 -2.5436551296 -3.6324760506 7.6317112995
12 2 1.7734843347 7.1816053985 2.7788953315
13 3 2.2956903886 6.3510313282 2.9247384122
14 3 2.4395435025 7.8900773258 2.6680564633
15 2 -5.5643359365 6.7981609190 4.5595354552
16 3 -5.9555048903 6.1465860641 3.9237550415
17 3 -4.9380442891 7.3501934241 4.0646604610
18 2 4.7085399667 2.7039229794 8.3428970302
19 3 4.1880602717 3.4354516733 7.9671718750
20 3 5.6492887277 2.9425672667 8.1558258470
21 2 -2.0826908944 8.4968352461 10.4293300521
22 3 -1.8685007095 7.9424614074 9.6347399189
23 3 -1.2252316569 8.8286770563 10.7887560586
24 2 6.2579726977 6.0996969375 6.9572112000
25 3 5.8822482750 6.3520422222 6.0842238104
26 3 5.5471064345 6.2889548657 7.6099881408
27 2 2.4707340972 3.2454195920 5.0998674699
28 3 2.6558376040 3.5171302433 6.0145773258
29 3 2.9951240195 2.4262770756 4.9436680019
30 2 -2.4720244519 1.3200910022 5.4861256850
31 3 -1.4906620900 1.1724377210 5.4671264904
32 3 -2.8459412750 0.4101923197 5.4904163415
33 2 1.0021262388 8.1864767714 -2.1631952458
34 3 1.6757329365 8.1243671338 -2.8819580256
35 3 0.1468768948 7.9672895692 -2.5804809916
36 2 1.3153589163 0.6948955596 8.1079956822
37 3 0.8025226510 1.0959404996 8.8586818895
38 3 1.2147298142 -0.2721780446 8.2426675190
39 2 0.2318478167 0.6953592313 5.4783290547
40 3 0.7475716981 1.2053239289 4.8194934279
41 3 0.6652360465 0.8263463014 6.3565298172
42 2 -5.4132621911 10.5815312951 -3.6298829222
43 3 -5.6523103614 11.3710044573 -3.1039387792
44 3 -4.5788028778 10.2811502020 -3.2245697193
45 2 -7.4886352576 -1.9338151984 6.2562486975
46 3 -6.8584851073 -1.2655405465 6.5959000056
47 3 -6.9419866533 -2.5021536899 5.6781616929
48 2 7.3388491659 3.4702594933 7.4161545995
49 3 7.4922152153 2.7975390236 6.7172413811
50 3 7.0480178449 4.3037088341 6.9855008248
51 2 6.4878418169 2.8536713977 3.7085045906
52 3 6.5504245827 3.7709827736 4.0211695880
53 3 7.0825136960 2.3370063352 4.3106711598
54 2 -3.3211163207 2.5491048875 0.1573293584
55 3 -2.7078072624 2.1448019336 0.8278244714
56 3 -4.1975902331 2.4553957488 0.5755770512
57 2 4.2445988616 9.5783282909 -0.6168043155
58 3 4.1368751820 9.5042124182 0.3541773946
59 3 5.1785483411 9.8447864160 -0.7809360641
60 2 8.2656046921 5.6376071155 4.3242673671
61 3 8.6818960086 6.3973941887 4.7664736817
62 3 7.9044176426 6.0145303126 3.4941575261
63 2 10.1940434349 4.2482225854 13.1414901978
64 3 10.8326657843 3.5313621817 13.3728385337
65 3 9.7706238695 4.5764839502 13.9588576787
66 2 -0.2335968518 8.2668853931 4.5560866540
67 3 0.5011810076 7.8210858804 4.0783715644
68 3 0.1499162908 9.0864280719 4.9297488524
69 2 6.8711829398 10.5048605590 9.0385098099
70 3 7.0280045333 11.3896485262 9.4369736137
71 3 7.4911960638 9.8971165950 9.4974678113
72 2 17.6968927235 6.3288455496 1.6241359232
73 3 17.8963924818 7.1298797357 1.0961739201
74 3 16.8068193064 5.9862355230 1.3377203320
75 2 -3.1675737359 -1.4656596021 5.0157617933
76 3 -3.3557165056 -1.1957220074 4.0832524018
77 3 -2.2386900686 -1.7601801971 4.9681283121
78 2 6.8009226033 9.8928149128 2.3936768668
79 3 7.0454722079 9.3121377460 1.6548315129
80 3 7.4813504416 10.6104877843 2.3458430036
81 2 4.1715859318 6.5684563618 -1.4685943825
82 3 4.4385881968 6.1327367055 -0.6149963065
83 3 4.0733228172 7.5233628535 -1.2703169236
84 2 -0.6237700478 14.8324731878 8.7303128058
85 3 0.2774734937 14.7475405162 8.3658636753
86 3 -1.2233258755 14.2516673516 8.2162471311
87 2 2.3164696350 4.9424133884 7.5709613205
88 3 2.0714432315 5.5390598460 6.8455163167
89 3 2.8543718122 5.5273984360 8.1611900504
90 2 4.1699832259 1.0832564494 4.3250652761
91 3 4.9233841709 1.6919634937 4.1727891422
92 3 4.4721984940 0.5666899649 5.1070886253
93 1 0.0635387430 1.1047611093 1.5900343186
94 1 3.6727418787 4.1020541406 1.4902045348
95 2 -1.6185875530 1.4690772000 2.0791454888
96 3 -1.7211258410 2.1953802060 2.7134149779
97 2 0.5343823762 1.7708229988 0.0126891171
98 3 0.9403393874 2.6587964454 0.1230739876
99 2 0.1596439906 -0.6789919067 1.4686133361
100 3 -0.0831246474 -1.1358050609 2.2927233873
101 2 1.1654118668 1.8567208461 2.7770772358
102 3 2.1136583859 1.8937499167 2.5792942248