-346707.506 
-346708.035 
-346706.460 
-346703.513 
-346699.736 
-346695.553 
-346691.305 
-346687.126 
-346682.959 
-346678.838 
-346674.833 
