Comment line
      96 atoms
4 atom types
0 10.1711620000 xlo xhi
0 10.1711620000 ylo yhi
0 10.1711620000 zlo zhi

Masses

1 27
2 15.9999
3 1.0
4 22.99

Atoms

1 1 2 0 6.1754850000 7.8712500000 4.2779670000
2 2 3 0 5.7844490000 8.1464370000 5.0993360000
3 3 3 0 5.4750190000 8.1732600000 3.6029200000
4 4 2 0 1.9193900000 7.4595740000 2.5598960000
5 5 3 0 1.3827190000 6.6369940000 2.5096000000
6 6 3 0 1.3036230000 8.1102480000 2.1511280000
7 7 2 0 3.9423640000 7.0524650000 9.3370530000
8 8 3 0 4.5360790000 7.3584790000 10.0497980000
9 9 3 0 4.1677800000 7.5347790000 8.5207550000
10 10 2 0 3.9798440000 4.2411850000 10.0539690000
11 11 3 0 4.1721870000 4.2370060000 0.8249240000
12 12 3 0 4.1228720000 5.1450610000 9.6361280000
13 13 2 0 0.4035880000 5.0032640000 1.5944030000
14 14 3 0 0.6994410000 5.2987610000 0.7026080000
15 15 3 0 0.8504580000 4.1404100000 1.6847320000
16 16 2 0 4.4540970000 8.1712270000 6.7488080000
17 17 3 0 3.8014050000 7.6090330000 6.2911940000
18 18 3 0 4.1314130000 9.0729360000 6.7739890000
19 19 2 0 7.7360500000 7.9140900000 7.3938350000
20 20 3 0 7.2738450000 8.7395130000 7.1514430000
21 21 3 0 7.5930570000 7.7924720000 8.3418250000
22 22 2 0 7.9255140000 4.6385170000 2.4899210000
23 23 3 0 8.7664000000 4.7998910000 2.0465200000
24 24 3 0 7.4447250000 4.0382030000 1.9392410000
25 25 2 0 0.6942750000 1.1321720000 4.6721430000
26 26 3 0 0.4201370000 1.6861350000 5.4022830000
27 27 3 0 0.0976870000 0.3956490000 4.9061580000
28 28 2 0 2.1157920000 6.7960370000 5.3351950000
29 29 3 0 1.9190170000 7.0672350000 4.4014530000
30 30 3 0 2.5162970000 5.9023910000 5.1675690000
31 31 2 0 4.0858550000 3.2149070000 2.6484420000
32 32 3 0 3.2210500000 2.8593820000 2.3442500000
33 33 3 0 3.9662830000 3.6002390000 3.5529240000
34 34 2 0 0.3870540000 9.8037490000 9.0143430000
35 35 3 0 9.9965680000 0.2820920000 8.5999850000
36 36 3 0 0.0802640000 8.9274710000 8.8405280000
37 37 2 0 9.6234830000 5.7256800000 4.8080210000
38 38 3 0 8.8844910000 5.2029570000 4.4579850000
39 39 3 0 9.6042410000 6.6191900000 4.4143070000
40 40 2 0 7.4965080000 9.5884130000 2.1882590000
41 41 3 0 7.1641900000 9.1849530000 3.0389320000
42 42 3 0 6.9732150000 0.2013210000 2.0149350000
43 43 2 0 0.9933320000 6.6647650000 9.3148660000
44 44 3 0 1.9196750000 6.9115240000 9.3561600000
45 45 3 0 0.8733300000 6.2778940000 8.4652790000
46 46 2 0 1.4467450000 2.3380500000 1.8317140000
47 47 3 0 0.9604150000 1.8017060000 2.4378050000
48 48 3 0 1.7055410000 1.6854920000 1.1553750000
49 49 2 0 7.0506210000 7.7139160000 0.1207630000
50 50 3 0 7.2417880000 6.8174260000 0.4460250000
51 51 3 0 7.0915910000 8.3317000000 0.9130330000
52 52 2 0 2.5998650000 0.2979360000 6.6187410000
53 53 3 0 2.0462230000 0.0030140000 7.3535380000
54 54 3 0 2.0401820000 0.4358700000 5.8128050000
55 55 2 0 9.9596670000 8.9018770000 6.0808750000
56 56 3 0 0.4574800000 8.1673140000 6.2876510000
57 57 3 0 9.1017370000 8.5916650000 6.4043940000
58 58 2 0 6.1353000000 2.4837460000 8.8209010000
59 59 3 0 5.4937410000 3.0184820000 9.2775680000
60 60 3 0 6.9069310000 3.0287000000 8.7874120000
61 61 2 0 3.6822660000 3.8988180000 5.8736200000
62 62 3 0 4.5817930000 4.1465670000 6.2480490000
63 63 3 0 3.2020670000 3.4217440000 6.5463500000
64 64 2 0 9.3874870000 1.6764160000 7.1206630000
65 65 3 0 9.0816910000 2.5723450000 7.3700590000
66 66 3 0 8.5788660000 1.1964080000 7.0009120000
67 67 2 0 7.7304400000 4.8284970000 8.4097200000
68 68 3 0 7.3473230000 4.5684130000 7.5957160000
69 69 3 0 8.7089860000 4.9979190000 8.2916100000
70 70 2 0 2.7679670000 2.9201230000 7.3589530000
71 71 3 0 2.9922470000 2.9911020000 8.2991760000
72 72 3 0 2.7598860000 1.9656090000 7.0765120000
73 73 2 0 6.5670760000 5.6203990000 5.9016220000
74 74 3 0 6.9776000000 6.3093160000 6.4811050000
75 75 3 0 6.4451900000 6.0498780000 5.0368220000
76 76 2 0 6.3851660000 1.9632970000 1.6671370000
77 77 3 0 6.3173280000 2.1674990000 0.7133160000
78 78 3 0 5.4033160000 2.2139860000 1.9211100000
79 79 2 0 3.1027660000 0.5840480000 0.4980360000
80 80 3 0 2.8015050000 10.0500460000 10.1129070000
81 81 3 0 3.5291190000 0.0749370000 1.2726370000
82 82 2 0 6.4894420000 2.2284890000 4.8240400000
83 83 3 0 7.1762500000 2.8787280000 4.5722790000
84 84 3 0 5.5995070000 2.6029090000 4.5693870000
85 85 2 0 4.2131200000 8.6786030000 2.6318550000
86 86 3 0 3.8222630000 9.4652510000 3.2000520000
87 87 3 0 3.3540630000 8.1145130000 2.6396470000
88 88 2 0 0.2910840000 4.5035400000 7.3722270000
89 89 3 0 0.3048120000 4.9093440000 6.5100860000
90 90 3 0 1.1525320000 3.9889220000 7.4418220000
91 91 2 0 6.9229370000 0.3606970000 6.9187800000
92 92 3 0 6.3949350000 0.7715460000 7.6130780000
93 93 3 0 6.8140990000 0.8253100000 6.0882250000
94 94 2 0 0.2441840000 9.3816170000 1.6695430000
95 95 3 0 9.4730530000 9.6173900000 1.9784780000
96 96 3 0 0.3338980000 9.6898610000 0.7078260000
