-346646.045 
-346658.355 
-346668.199 
-346676.536 
-346682.940 
-346688.394 
-346692.828 
-346696.437 
-346699.258 
-346701.557 
-346703.642 
-346704.834 
-346705.949 
-346706.821 
-346707.511 
-346707.688 
-346707.871 
-346708.064 
-346707.651 
-346707.250 
-346706.861 
