ITEM: TIMESTEP
0
ITEM: NUMBER OF ATOMS
96
ITEM: BOX BOUNDS pp pp pp
0 9.850000
0 9.850000
0 9.850000
ITEM: ATOMS id type x y z
1 2 6.7097858609 7.6651267004 14.3526235265
2 3 7.1063914502 8.3457063801 15.0379851528
3 3 5.8045377894 7.5636277166 14.7161252371
4 2 2.0430655692 6.1721570994 12.6550583419
5 3 1.9561495262 5.5660132164 11.9026206453
6 3 1.3601473728 6.8228754499 12.4359758755
7 2 -5.3710782224 6.5532139157 -0.9298573039
8 3 -4.5248805381 6.8714821554 -0.4378247860
9 3 -5.3353087814 6.8196520300 -1.8855368589
10 2 13.2867083533 14.0413570742 9.5397471350
11 3 13.5419576833 14.0111295036 10.4412567336
12 3 13.7699848742 14.8784554123 9.2218316022
13 2 0.8455467051 -5.8681404823 10.9180091197
14 3 1.3344151581 -6.0704947413 10.1005600381
15 3 1.1234627914 -6.6181549431 11.6246812996
16 2 -5.6703311497 7.4276366087 -3.7034816616
17 3 -6.4588020604 6.8557602035 -3.8809686372
18 3 -6.1021435105 8.2305765702 -3.4871529332
19 2 7.4410964621 -2.3392240728 8.1041584959
20 3 7.2692422843 -1.4017390388 8.0078411416
21 3 7.0548077559 -2.7184220914 8.9637846742
22 2 -1.6114169358 4.4538216119 1.6667959750
23 3 -0.7608008512 4.1988957519 1.3916691675
24 3 -2.1945824655 3.7850788741 1.3382749135
25 2 20.7344439006 -10.0362609121 14.2941927969
26 3 20.1831585175 -10.6099718710 14.8768060694
27 3 20.4558505170 -10.4420357692 13.4631987536
28 2 1.9507414690 -4.4118415488 5.4391531052
29 3 2.0700336908 -4.2603520316 4.4604197218
30 3 2.4613195806 -5.2139737594 5.6858905763
31 2 14.5684494844 4.5841409216 2.2866445088
32 3 14.4505074580 4.3682811665 3.2482897592
33 3 15.1554671435 5.3678600074 2.3290182010
34 2 1.1806607034 -0.3816652365 -10.7002234988
35 3 0.4109714770 0.0661165648 -11.1715129759
36 3 1.1276756092 -1.3789936823 -10.7886278085
37 2 8.5371067050 -4.6115238404 4.4329364368
38 3 8.6877703863 -4.9026740872 3.5215911363
39 3 8.9694547577 -3.7149964598 4.6031977662
40 2 7.3331322580 -0.7968346470 12.1569133401
41 3 6.9198880777 -1.3306971584 12.9421015803
42 3 7.0387421126 0.1278775393 12.0850158797
43 2 11.1108935134 6.6673069723 8.3588544995
44 3 12.0009471692 6.4419590650 8.6756687343
45 3 10.5959969227 5.8921575553 8.5678971668
46 2 2.0158602636 12.0895486416 2.7142047956
47 3 1.7350126042 11.2966231863 3.2041505275
48 3 2.6856685119 11.7374739419 2.1350724131
49 2 -3.2671354763 16.4119112819 20.3993471477
50 3 -2.4242082686 15.8596762562 20.5600865734
51 3 -3.1224005470 17.1639756759 21.0215129759
52 2 2.9994380100 0.1853529127 -3.1630189661
53 3 2.1724191170 0.0871300251 -2.6360647319
54 3 2.6151473935 0.2429638954 -4.1068203260
55 2 -10.0777434639 17.2071956162 15.6935011836
56 3 -9.3776191308 16.7696197513 16.1771060453
57 3 -10.8844439006 17.1729802836 16.2777773246
58 2 -4.1349927836 20.8134567483 9.1135969800
59 3 -5.0424163332 21.0570172730 8.9424064220
60 3 -3.6345765073 21.6545424137 8.8915914883
61 2 14.4075604789 3.6878064882 5.0340094908
62 3 14.9625907898 4.3434019102 5.5321768187
63 3 13.8144035257 3.4295102360 5.7797762442
64 2 -0.5661395774 -8.8025987763 7.3691770996
65 3 -0.4016169778 -7.9318745367 7.0127034428
66 3 -1.5138161680 -9.0582196649 7.1725984902
67 2 7.3560151449 -6.3369243503 8.6655512680
68 3 7.2141779633 -5.6939453001 7.9155965592
69 3 8.1729259236 -6.7583451310 8.3727524303
70 2 12.8746231096 12.8470496460 -2.6631195771
71 3 12.9305170234 13.0822453214 -1.7238785877
72 3 12.8911314227 11.8872802283 -2.6196570741
73 2 -3.4635452878 5.2276644419 -3.3093771032
74 3 -3.5092625036 6.1605154487 -2.9198745879
75 3 -2.7249766148 5.1865627777 -3.9370015727
76 2 6.1257264888 11.6578880174 11.7675244315
77 3 5.8245282094 11.4600931974 10.8314995312
78 3 5.8314072712 12.5693110812 11.9000297223
79 2 3.2198159684 20.7086029344 10.4451236600
80 3 2.6466340029 20.0434126516 10.1083979380
81 3 3.7355364961 20.1496341918 11.1000784112
82 2 6.5964292375 -8.0510805200 4.5842228995
83 3 6.3951286814 -8.2450276019 3.5974275663
84 3 5.8300006843 -7.4602897220 4.7539603815
85 2 13.5432137220 -10.9394514131 2.7604348005
86 3 12.8858114625 -10.8293112658 3.4542943318
87 3 13.1630056054 -11.8045424137 2.4835868863
88 2 0.2177500710 3.7074544268 6.9263810844
89 3 0.3282492476 4.1542802642 6.0241377280
90 3 1.1169434959 3.4744059813 7.2848409841
91 2 -2.9291518068 0.0053503059 6.4241907448
92 3 -3.7466949470 0.3362516448 6.8711630700
93 3 -2.9171978179 0.5190046941 5.6172026371
94 2 19.9577113654 8.5365543285 2.0794588761
95 3 18.9944020322 8.7788138578 2.0693751466
96 3 20.2182986633 8.9446443929 1.2763904753
ITEM: TIMESTEP
1
ITEM: NUMBER OF ATOMS
96
ITEM: BOX BOUNDS pp pp pp
0 9.850000
0 9.850000
0 9.850000
ITEM: ATOMS id type x y z
1 2 6.5213112300 7.6492044157 14.2285325704
2 3 7.1474260061 7.9029986187 14.8619950488
3 3 5.6696443130 7.7367389362 14.6562553147
4 2 2.0892481479 6.3976768614 12.5556003832
5 3 1.7207263780 5.6311965494 12.1266305524
6 3 1.3811485275 7.0718991855 12.3657277278
7 2 -5.4176620300 6.6957247352 -1.0303911041
8 3 -4.6069680418 6.6604581164 -0.4648687921
9 3 -5.2412099164 7.1509716456 -1.8521468123
10 2 13.1579574289 14.1136717647 9.6493067164
11 3 13.5768983488 13.8654735934 10.5087144564
12 3 13.6078337852 14.9751437348 9.4441227672
13 2 0.9530840183 -5.7706719786 10.9133278920
14 3 1.6579918810 -5.7155531392 10.2657195857
15 3 1.3951757413 -6.3778017991 11.5157780983
16 2 -5.7835144767 7.4312244773 -3.7944046118
17 3 -6.4266980531 6.7459882133 -4.1354203228
18 3 -6.2357385396 8.2744229123 -3.6696388544
19 2 7.5335882947 -2.2335766378 7.9857277813
20 3 7.5412563087 -1.2794240700 8.1148877816
21 3 7.6530586619 -2.7110039858 8.7942062475
22 2 -1.7430814473 4.4489362101 1.5870253897
23 3 -0.8104828241 4.3667382416 1.1212621385
24 3 -2.1640139673 3.6007623863 1.6593830726
25 2 20.6877798029 -9.9941062059 14.3597041515
26 3 19.9203612533 -10.0003260508 14.9398878661
27 3 20.3790058157 -10.4537772454 13.5257160593
28 2 2.2642571800 -4.3962986114 5.4091859803
29 3 2.0377987368 -4.2139073242 4.4910652310
30 3 2.8149694744 -5.2137343602 5.2639446134
31 2 14.5144786125 4.3779342740 2.2732241543
32 3 14.3355854894 4.3666939565 3.2473011066
33 3 15.0229877909 5.1972105524 2.0647635191
34 2 1.0411977786 -0.4322168442 -10.8567741929
35 3 0.5497039803 0.2361472686 -11.3957912076
36 3 0.9065792653 -1.3648696583 -11.0902435835
37 2 8.5874218511 -4.6751670650 4.4812596603
38 3 8.2383615563 -4.6201474683 3.5836655066
39 3 8.9297557363 -3.7837554822 4.7065846276
40 2 7.4497674146 -0.9153486719 12.0614567996
41 3 6.9451285653 -1.2669254265 12.8607649147
42 3 7.2011033749 0.0014401381 11.8713265525
43 2 10.8766752960 6.6182056786 8.4643073815
44 3 11.6972292204 6.2279045269 8.6713123275
45 3 10.2017208161 6.0219929446 8.7070819397
46 2 2.0645483337 12.0887961815 2.7060409360
47 3 1.3891024204 11.6539274320 3.2737556949
48 3 2.2982911567 11.3703558439 2.0702628226
49 2 -3.1854803475 16.3996455953 20.4349344374
50 3 -2.8191452355 15.5730477172 20.7751758543
51 3 -2.8332264644 17.1432506541 20.9472728821
52 2 3.0869346921 0.1796686812 -3.0178245036
53 3 2.6793473655 -0.1368270741 -2.1732641319
54 3 2.3402982222 0.2746192907 -3.5889561506
55 2 -10.1762199116 17.2569699739 15.7952251483
56 3 -9.2861404325 16.9641761021 15.9708200536
57 3 -10.6173431439 17.2781479133 16.6550045993
58 2 -3.9415327610 21.0588909164 9.1001951698
59 3 -4.8743650453 21.0384105685 9.3274477641
60 3 -3.6296809632 21.9136777212 8.7327513488
61 2 14.4457530786 3.6100173630 5.0336525871
62 3 14.9154490016 4.3275214974 5.5504105577
63 3 13.8801136721 3.1824174805 5.7212926053
64 2 -0.5032562398 -8.8055220319 7.4453213527
65 3 -0.1739550842 -7.9480462180 7.0871720435
66 3 -1.3144144820 -9.1092831768 6.9598986960
67 2 7.4365044370 -6.2751738485 8.6174492679
68 3 6.9641291304 -5.6773670627 8.0396960248
69 3 8.2439802929 -6.6312529769 8.1282012229
70 2 12.8007566925 12.8914851397 -2.5704366651
71 3 13.1567981327 13.2595205933 -1.6897896536
72 3 12.7803656633 11.8998925509 -2.6055443578
73 2 -3.3927361014 5.3634877857 -3.3284354828
74 3 -3.3410688882 6.2851890345 -3.0168601901
75 3 -2.7733778994 5.4776320032 -4.1045965221
76 2 6.0369336113 11.6118524056 11.7469083420
77 3 6.1927614202 11.3732603498 10.7957538438
78 3 5.4613474798 12.3555358661 11.8460823488
79 2 3.3349026643 20.5133894684 10.4605689039
80 3 2.5746399386 20.0934795961 9.9700507424
81 3 3.6752042334 19.7690094333 11.0183065476
82 2 6.5369935016 -8.0105542227 4.7274509014
83 3 6.3335904433 -8.3022961101 3.8020473641
84 3 5.9264789702 -7.2972332683 5.0166653731
85 2 13.6267332884 -10.9645190713 2.7197928520
86 3 12.9943036108 -10.8045315657 3.4883583057
87 3 13.7073282469 -11.9424412976 2.7149069756
88 2 0.2938043523 3.6328092641 7.0660336396
89 3 -0.1431704205 4.2736838562 6.4177574439
90 3 1.2086064412 3.6065835197 6.8431971119
91 2 -2.9395842193 -0.0797712731 6.4177544734
92 3 -3.6513139239 -0.2357273013 7.0641596274
93 3 -3.2319026506 0.7748639289 5.8873324145
94 2 20.0239222405 8.6910299283 2.0702497444
95 3 19.0215523181 8.7283958187 2.0319727565
96 3 20.2755990368 9.0324659382 1.1649927785
ITEM: TIMESTEP
2
ITEM: NUMBER OF ATOMS
96
ITEM: BOX BOUNDS pp pp pp
0 9.850000
0 9.850000
0 9.850000
ITEM: ATOMS id type x y z
1 2 6.4169273294 7.7022812859 14.0611213099
2 3 6.6363427664 8.1938980707 14.9313254362
3 3 5.3762520444 7.8539295852 13.9560925593
4 2 2.0359679101 6.5599524847 12.4814459787
5 3 1.7835999673 5.7198196761 11.9255603891
6 3 1.3862737281 7.2966968804 12.2980763764
7 2 -5.5312032151 6.7754297645 -1.1106920491
8 3 -4.6339692339 6.8764003058 -0.8551774334
9 3 -5.4520570418 6.7979118833 -2.1057469687
10 2 13.1215008604 14.2370059221 9.6885404613
11 3 13.5903512650 14.0606956130 10.5621998697
12 3 13.6500539119 14.9826645170 9.2804138865
13 2 0.9844025890 -5.5896718980 10.9867636603
14 3 1.7476961210 -5.5227872484 10.3377572575
15 3 1.1028214130 -6.4636341309 11.4694370332
16 2 -5.7756469251 7.4824950405 -3.8624097598
17 3 -6.4717900972 6.8143341412 -4.0252237724
18 3 -6.1118880744 8.4221126421 -3.5701142784
19 2 7.6480521730 -2.1748148195 7.9555812344
20 3 7.7404121708 -1.1951361988 8.0077177595
21 3 7.2643873000 -2.4290961769 8.8364120114
22 2 -1.8613681578 4.4404618503 1.5804449554
23 3 -0.9279295864 4.1923755140 1.3967567485
24 3 -2.3381753679 3.5990196677 1.4399246306
25 2 20.7207464904 -9.8217355284 14.4796783176
26 3 20.1232370009 -10.3717622828 15.0190420323
27 3 20.6099603387 -10.0693078294 13.5064808001
28 2 2.4686866391 -4.3056353343 5.2973917198
29 3 2.2313410587 -3.9183295197 4.3818081651
30 3 3.0771359795 -5.0595151269 5.0931853271
31 2 14.4503603047 4.1786758995 2.2185799969
32 3 13.9858179876 3.9978321974 3.0426323362
33 3 15.1053258314 4.8930567877 2.3414136684
34 2 1.0095045133 -0.5093541246 -10.8310185463
35 3 0.2718561913 -0.0619960223 -11.2737415732
36 3 0.7536023342 -1.4554373530 -10.8953657095
37 2 8.5721243551 -4.7561229090 4.6400397911
38 3 8.4401191429 -5.0002525117 3.7125470241
39 3 8.8816573189 -3.8519743403 4.6257316002
40 2 7.5110038647 -1.0903089810 12.0575735008
41 3 7.1765173866 -1.6483259095 12.8678025470
42 3 6.7391909342 -0.5332638050 11.8938250401
43 2 10.6518674677 6.5526861336 8.5769947773
44 3 11.5837850040 6.3814859330 8.6795940876
45 3 10.2412151467 5.6716572387 8.5682493703
46 2 2.0299413257 12.0788626297 2.7091465404
47 3 1.7510040238 11.4742051480 3.4323876184
48 3 2.5882701316 11.5753237691 1.9940905774
49 2 -3.1416906832 16.4421201638 20.4200968372
50 3 -2.5072217804 15.6720989360 20.5749448626
51 3 -2.8407259233 17.2421064705 20.9559145690
52 2 3.0894310811 0.1787739800 -2.8675067957
53 3 2.5841298469 -0.2185752175 -2.1017785171
54 3 2.4417537496 0.1734693163 -3.5810856685
55 2 -10.2269191356 17.3690631723 15.8759603711
56 3 -9.5065030534 16.7932254984 16.2100464368
57 3 -10.8710593933 17.2601351902 16.6158204316
58 2 -3.7948190172 21.1821858241 9.0915447954
59 3 -4.7519613224 21.3381426416 8.9339621470
60 3 -3.3127542511 21.9856765736 8.7272852705
61 2 14.4253088433 3.7165366619 5.1837555756
62 3 15.0794956499 4.3442947166 5.5355612568
63 3 14.0197140267 3.2339389903 5.9180955012
64 2 -0.5139549226 -8.8079971948 7.3910732231
65 3 -0.2988355919 -7.7990995877 7.2724709870
66 3 -1.3939037151 -8.8910864630 7.0702420881
67 2 7.4275807635 -6.1453450595 8.5136853021
68 3 7.2805954425 -5.5402601065 7.7557379048
69 3 8.4298985185 -6.2275216187 8.7080345725
70 2 12.7957658042 12.8902514492 -2.5807536556
71 3 13.1101520596 13.2600086994 -1.7356564362
72 3 12.8179284116 11.8745579313 -2.4862971624
73 2 -3.3478249664 5.3734597971 -3.4414992656
74 3 -3.4493191997 6.3100747517 -3.4196715687
75 3 -2.6395429147 5.2498773688 -4.1573148905
76 2 6.0480421097 11.5604906534 11.7914509368
77 3 6.0066561316 11.3940559012 10.8079155866
78 3 5.2715626909 12.1012406114 11.9959328364
79 2 3.3850002397 20.2755094561 10.4764621298
80 3 2.5570260819 20.0121698900 9.9356049645
81 3 3.7327219769 19.5380992522 10.9705253023
82 2 6.5857255163 -8.0295933450 4.7909361285
83 3 6.9009774789 -8.1914483427 3.9179892222
84 3 5.8099437946 -7.4066017575 4.6947836796
85 2 13.7541660857 -10.9450255922 2.7426425052
86 3 13.2195705040 -10.4265805845 3.4280589200
87 3 13.3020569675 -11.7438697410 2.4296940431
88 2 0.2063686375 3.6853883431 7.1441952000
89 3 0.1289858213 3.8466591506 6.1708477195
90 3 1.1766448798 3.4417619950 7.1523298151
91 2 -2.9488421953 -0.1740617006 6.4084698778
92 3 -3.4938029674 0.2277247020 7.0899917193
93 3 -3.0634781831 0.5560525604 5.7313367648
94 2 20.0706395080 8.7920429378 1.9751579467
95 3 19.1008541916 8.8283261535 2.1339090588
96 3 20.3009135002 9.0730853673 1.0238218338
ITEM: TIMESTEP
3
ITEM: NUMBER OF ATOMS
96
ITEM: BOX BOUNDS pp pp pp
0 9.850000
0 9.850000
0 9.850000
ITEM: ATOMS id type x y z
1 2 6.3032364161 7.7428506274 14.0653418438
2 3 6.0010640866 8.2380379805 14.7830429970
3 3 5.4991027778 7.7122097068 13.5788107996
4 2 1.9136078192 6.7060111945 12.4146918223
5 3 1.7551017571 5.9851147654 11.7991589693
6 3 1.2647118521 7.3853708818 12.1639259102
7 2 -5.6841941798 6.7542200201 -1.2015649720
8 3 -4.8843977559 6.9235644637 -0.6740073533
9 3 -5.4093046798 6.9948392284 -2.1316718582
10 2 13.1821720605 14.3751814526 9.5895284980
11 3 13.7005108207 14.2841146186 10.3812234286
12 3 13.3759678334 15.2674506029 9.2057295818
13 2 0.8984929126 -5.4341622421 11.1247379344
14 3 1.4607751755 -5.3787432679 10.3427327704
15 3 1.2439119908 -6.0855598049 11.7367480419
16 2 -5.6169040215 7.6000346370 -3.8152354961
17 3 -6.3568826495 7.0078882638 -4.1387206026
18 3 -6.1192977046 8.3906967554 -3.4646653146
19 2 7.6815061692 -2.1951914215 8.0421832284
20 3 7.3283597795 -1.2982556026 8.2975068424
21 3 7.6699803630 -2.5600376775 8.9688318218
22 2 -1.9029126748 4.3375525252 1.7003262776
23 3 -1.0590667105 4.3674217034 1.2653047194
24 3 -2.3668107186 3.6094099515 1.2045556988
25 2 20.7892499256 -9.7019993752 14.5697631206
26 3 20.3792920871 -10.3252817313 15.2060544797
27 3 20.4584712476 -10.0288887658 13.7483066029
28 2 2.4657598896 -4.1550330415 5.1368652258
29 3 2.1445792506 -3.9839798034 4.2463598020
30 3 3.3067188894 -4.6453216280 5.1181597912
31 2 14.3771287416 4.0045676925 2.2125706534
32 3 13.8493680250 3.8494861824 2.9989993986
33 3 15.0983221615 4.5837660230 2.4720408125
34 2 0.9910763852 -0.5941107016 -10.6960343787
35 3 0.3030137602 0.0817732955 -11.0996713933
36 3 0.6553075253 -1.4239049845 -11.0694574936
37 2 8.6089606957 -4.8650082454 4.7744972135
38 3 8.4870044461 -5.0671682588 3.8072380341
39 3 8.9816105241 -3.9493206660 4.8509609864
40 2 7.4970753230 -1.1774639151 12.0171915754
41 3 7.1016287088 -1.4569596374 12.8868242732
42 3 7.3425464597 -0.2409206161 11.8468362263
43 2 10.5486413494 6.4180475969 8.7160401562
44 3 11.5350517447 6.3438746295 8.7956700962
45 3 10.3422188010 5.6090740882 8.1152585429
46 2 2.1207412198 12.0605349455 2.6631328400
47 3 1.7419310893 11.6228059194 3.4230942927
48 3 2.3511358188 11.4388022579 1.9985822980
49 2 -3.1837545728 16.5454307419 20.2352046491
50 3 -2.7094419316 15.7327588738 20.5690938850
51 3 -3.0647769255 17.2142323182 20.9069037018
52 2 3.0293037852 0.1728399855 -2.7660173623
53 3 2.3107193949 -0.0602447964 -2.1513283788
54 3 2.5589240506 0.2969807525 -3.6340190654
55 2 -10.1784464051 17.4370872908 15.8341949537
56 3 -9.5264507827 17.1117615430 16.5247875366
57 3 -11.0011133623 17.5770918410 16.3651596780
58 2 -3.7059385255 21.2377200532 9.0053010127
59 3 -4.6725929138 21.3070189414 8.7652174625
60 3 -3.3550031493 22.1051814120 8.7204497941
61 2 14.3913998203 3.8512011604 5.3099727415
62 3 15.1772879730 4.4149605318 5.6383722756
63 3 13.8273371111 3.5552221599 6.1074210506
64 2 -0.5500168808 -8.8591309802 7.3920387940
65 3 -0.6168346480 -7.9539922060 7.2188112419
66 3 -1.3603043044 -9.2832039665 7.0323759741
67 2 7.3868372649 -5.9655663287 8.4574727165
68 3 7.0185281659 -5.3365028694 7.7870126766
69 3 8.3784279927 -5.8467988372 8.2434444499
70 2 12.7700529044 12.8323523619 -2.5230376934
71 3 12.9374292433 13.1681209472 -1.6009424026
72 3 12.8768731408 11.8771211779 -2.3736179919
73 2 -3.3738841898 5.2799899222 -3.5976017582
74 3 -3.7970855150 6.1213626900 -3.5186733148
75 3 -2.5610825919 5.2689516631 -4.1621826820
76 2 6.1211444378 11.4711654718 11.8550012627
77 3 6.1768606354 11.4817363710 10.8570723960
78 3 5.4832609769 12.2732200308 11.8608680378
79 2 3.3443460477 20.1697544659 10.4813530773
80 3 2.7360114131 19.4708667423 10.1055699484
81 3 3.8228857510 19.7564410215 11.2200229785
82 2 6.7304541197 -7.9985289479 4.7097497199
83 3 6.5770178663 -8.1043999851 3.7610489355
84 3 5.8409709176 -7.5937961777 4.9018358148
85 2 13.8890867522 -11.0041609953 2.7640937662
86 3 13.6625291537 -10.4002963300 3.5293380954
87 3 13.1780012360 -11.6754737421 2.7517248611
88 2 0.2003544557 3.8064160858 7.1865979024
89 3 -0.1692270620 4.1792426185 6.4012996384
90 3 1.2070339995 3.7254601044 7.1052406513
91 2 -2.9460168978 -0.1663422269 6.3896645050
92 3 -3.6629627643 0.0224234325 7.0012174970
93 3 -3.0111401489 0.4958607271 5.6431415780
94 2 20.1685034813 8.8686124204 1.9042152092
95 3 19.1916393670 8.8718722997 1.9549292592
96 3 20.4313067926 9.2083795669 1.0246939247
ITEM: TIMESTEP
4
ITEM: NUMBER OF ATOMS
96
ITEM: BOX BOUNDS pp pp pp
0 9.850000
0 9.850000
0 9.850000
ITEM: ATOMS id type x y z
1 2 6.2728052192 7.7307959787 13.9928864150
2 3 6.4116498852 8.2303362800 14.8934055984
3 3 5.3226385949 7.9779263603 13.7743904949
4 2 1.8762541196 6.8797969146 12.3341825537
5 3 1.4157202790 6.0268084428 12.1247764032
6 3 1.1799618474 7.5821857374 12.1008276680
7 2 -5.7490007229 6.8436053361 -1.1953163872
8 3 -4.8450193755 6.8586749788 -0.7206977170
9 3 -5.6987201961 7.1613621824 -2.1326766322
10 2 13.0853887856 14.3964932308 9.4630056090
11 3 13.4740821332 14.0880101283 10.3309789152
12 3 13.5610131409 15.2599184412 9.1882708748
13 2 0.7932623223 -5.3625626897 11.2950971596
14 3 1.2463660046 -5.2485107306 10.4089938155
15 3 1.2517229615 -6.2016000826 11.6827814552
16 2 -5.5061692971 7.7448686389 -3.6614309351
17 3 -6.2065947584 7.1849926588 -4.1255058083
18 3 -5.9746921833 8.5460420766 -3.4537297663
19 2 7.6538206144 -2.1828403396 8.1415957753
20 3 7.0119349615 -1.5176802976 8.4917194250
21 3 7.4812506174 -2.9448699401 8.7024272406
22 2 -1.9319999712 4.2512399094 1.8576434265
23 3 -0.9815811447 4.5572644320 1.5485899465
24 3 -2.0703852211 3.2970424626 1.5824629037
25 2 20.8293178714 -9.5892336103 14.6350026247
26 3 19.8676810825 -9.6689499726 14.8517984398
27 3 20.8632857474 -10.2578426457 13.9612045448
28 2 2.4220256698 -3.9144295630 5.0195054878
29 3 2.1539273299 -3.5441229409 4.1329258444
30 3 2.7305593681 -4.8360469158 4.8686173535
31 2 14.3927252780 3.8434346158 2.2766295350
32 3 13.8122544575 3.4679987105 2.9697840490
33 3 14.8711155364 4.5063562215 2.7871539695
34 2 0.9389983826 -0.6309525311 -10.6313265001
35 3 0.4889366150 -0.0187004108 -11.2434026291
36 3 0.5897944970 -1.5416451246 -10.7034916593
37 2 8.7207641171 -4.9407770784 4.8643169895
38 3 8.5507053987 -5.2346129629 3.9209541318
39 3 9.2179209607 -4.0808242327 4.8873806598
40 2 7.5321680065 -1.1448559794 12.0224891593
41 3 7.0574745462 -1.5418911590 12.9350588306
42 3 7.0088653713 -0.3232676466 11.9437606796
43 2 10.5661029099 6.2701972031 8.7767285536
44 3 11.5107733680 6.1197355018 9.0583188619
45 3 10.2864941562 5.4978839586 8.2660384736
46 2 2.2242201807 12.0398270469 2.6281601337
47 3 1.6009205930 11.6348997153 3.2678839402
48 3 2.3036159311 11.3221414972 1.9341299485
49 2 -3.3503831989 16.5661829518 20.0878584117
50 3 -3.0923642952 15.7419660995 20.4896275004
51 3 -2.8374854879 17.2822770713 20.6311080932
52 2 2.9227041039 0.1804462198 -2.7041847045
53 3 2.4253126041 -0.3913180383 -2.0770874873
54 3 2.2379127105 0.2653060052 -3.4500360396
55 2 -10.1086890610 17.5496987914 15.7568852114
56 3 -9.3345294273 17.1681042486 16.2460101999
57 3 -10.8324948017 17.6046391219 16.3835007614
58 2 -3.7135094137 21.2377712956 8.9021549198
59 3 -4.6589541072 21.3802516904 9.2165052056
60 3 -3.3284448131 22.1583724083 8.8111698772
61 2 14.2986490917 3.8429717706 5.3042789769
62 3 14.7100170678 4.5220933005 5.8343387051
63 3 13.8607244961 3.3742801645 6.0453578793
64 2 -0.5288096656 -8.9704318666 7.4283753637
65 3 -0.5380949675 -8.0297324404 7.3332327138
66 3 -1.4180948614 -9.3883460425 7.1391333859
67 2 7.3428973015 -5.7508045545 8.5037720195
68 3 6.8713315502 -5.2661678606 7.7791351413
69 3 8.1455243235 -6.0208851569 8.0731823774
70 2 12.6865249174 12.8081524377 -2.4022612028
71 3 12.8876576457 13.3527251084 -1.5745600304
72 3 12.7375334757 11.8826558904 -2.1811161563
73 2 -3.4507980716 5.2865635382 -3.6471763295
74 3 -3.4355163330 6.2663368961 -3.6137863454
75 3 -2.6091518586 5.0906988619 -4.1376470194
76 2 6.1678110914 11.4615701617 11.7843707322
77 3 6.3334642133 11.2159067158 10.8612683757
78 3 5.5325629991 12.2063123354 11.8305973282
79 2 3.4027040016 20.1528371816 10.4802410754
80 3 2.9667648197 19.5185397388 9.9007592352
81 3 3.9133558000 19.5100875904 11.0699139502
82 2 6.8031243461 -7.9927669212 4.5882597694
83 3 6.6679941120 -8.2379414805 3.5884831953
84 3 6.4642667677 -7.0999779560 4.7294595795
85 2 13.9899853771 -11.1400329799 2.8455796654
86 3 13.5552137437 -10.6646855161 3.5851991377
87 3 13.2521495453 -11.8370181611 2.7322179220
88 2 0.1707140058 4.0225803399 7.1823407307
89 3 -0.0232529032 4.2802741780 6.2691945959
90 3 0.9562173008 3.5167945075 7.3433867699
91 2 -2.9244977094 -0.1621545401 6.3259087956
92 3 -3.4093359830 0.1405353454 7.1294584336
93 3 -2.9554321491 0.6024568175 5.6738460339
94 2 20.1831159453 8.9775107179 1.9222938488
95 3 19.2137360102 8.7000906716 2.0527429337
96 3 20.2237920346 9.0267413966 0.9669434011
ITEM: TIMESTEP
5
ITEM: NUMBER OF ATOMS
96
ITEM: BOX BOUNDS pp pp pp
0 9.850000
0 9.850000
0 9.850000
ITEM: ATOMS id type x y z
1 2 6.4834541003 7.7082056790 13.9318981175
2 3 6.5662398919 8.1432172861 14.8099055555
3 3 5.5629035612 7.7906802115 13.7496282150
4 2 1.9174609293 6.9876587899 12.2881364218
5 3 1.6668642590 6.2171059498 11.6933711693
6 3 1.2274055154 7.7316367657 12.2095129851
7 2 -5.7717531272 6.9747391041 -1.0501973637
8 3 -4.9873267283 6.9385538914 -0.4824667914
9 3 -5.5263260417 7.2200376338 -1.9679623137
10 2 12.9880553032 14.3726365714 9.4683680900
11 3 13.4874656922 14.2517147881 10.3297209580
12 3 13.4864014236 15.0792176426 9.0164627172
13 2 0.7233668147 -5.3614172566 11.4750493987
14 3 0.8678109019 -5.1570960259 10.5221111256
15 3 1.2572683796 -6.1632716108 11.5369474291
16 2 -5.4459998644 7.8539044990 -3.5478505587
17 3 -6.0512517874 7.4121803115 -4.1340338094
18 3 -5.9080808603 8.7272091653 -3.2344439844
19 2 7.7359944645 -2.2006928471 8.0221593551
20 3 7.2365195666 -1.3589241420 8.0315977255
21 3 7.4993289574 -2.7557477696 8.8002110856
22 2 -1.9756422590 4.2539522839 2.1093370671
23 3 -1.0868032668 4.0502920152 1.8181641115
24 3 -2.4257878385 3.4020596764 2.2577619224
25 2 20.8872492575 -9.4368126592 14.6038487702
26 3 20.2171954573 -9.2447144991 15.3236411654
27 3 20.6343221555 -10.3495096926 14.2917796834
28 2 2.3583853953 -3.6000456231 4.9901148441
29 3 2.1885036650 -3.3921895330 4.0249836385
30 3 2.9674105040 -4.3721722887 4.9769086121
31 2 14.4321341584 3.6880084610 2.3148960770
32 3 13.5783079036 3.2852469821 2.6870480176
33 3 14.7363692699 4.1526680871 3.1089412725
34 2 0.9183773906 -0.7536542469 -10.5751426708
35 3 0.1294845117 -0.3125397249 -11.0107668852
36 3 0.7351396611 -1.7571119322 -10.6853696442
37 2 8.8850978136 -4.9965324877 4.8361523277
38 3 8.6739591914 -5.2734356675 3.9535860285
39 3 8.8927866306 -4.0306641248 4.8058129754
40 2 7.4960578549 -1.1803298815 12.0156786631
41 3 7.2066219712 -1.4404047187 12.8876642985
42 3 6.9375605244 -0.3957344333 11.8021265216
43 2 10.6631930882 6.2062313384 8.8272446967
44 3 11.6434402086 6.1494340121 8.7256057014
45 3 10.3071066852 5.7623566170 8.0425408226
46 2 2.1875662759 12.0324644944 2.6281034548
47 3 1.8403518956 11.3792317705 3.2852729996
48 3 2.7124895202 11.4508137820 1.9925049551
49 2 -3.5414200024 16.4976617001 20.1228747078
50 3 -3.2399780133 15.6249332549 20.3454640897
51 3 -3.2435441215 17.0736614269 20.8354924199
52 2 2.7753829352 0.0982875980 -2.7488872630
53 3 2.2364672359 -0.1777106399 -1.9398023901
54 3 2.1424382187 0.2418500945 -3.4634959854
55 2 -10.0658125271 17.5892677760 15.6566066068
56 3 -9.3060367436 16.9959060448 15.7611571950
57 3 -10.5272622055 17.5504762494 16.5296991412
58 2 -3.7768622794 21.2298425120 8.8382804950
59 3 -4.7318005475 21.0737028969 8.8505253164
60 3 -3.4872516687 22.0875212828 8.4738092965
61 2 14.1090480652 3.7043481116 5.1693162765
62 3 14.9310566326 4.1019513094 5.6011115908
63 3 13.5684976451 3.5495584402 5.9738881826
64 2 -0.4845516256 -9.0624796410 7.3641171670
65 3 -0.4879184046 -8.0668921432 7.4609666907
66 3 -1.3495054301 -9.2943298700 7.0100247970
67 2 7.2945174759 -5.6236333036 8.5951483999
68 3 6.9295087151 -5.2206996919 7.7796428879
69 3 8.2105252796 -5.4985462282 8.5424277758
70 2 12.5446232678 12.7371904438 -2.3313128491
71 3 12.9288406119 13.1920691881 -1.5266587666
72 3 12.5824817005 11.7305402563 -2.3514955029
73 2 -3.4825656246 5.4351254227 -3.6318375714
74 3 -3.5920942688 6.4450920580 -3.6392556048
75 3 -2.7987978067 5.3351682738 -4.3087677141
76 2 6.2386503791 11.4722401624 11.6164491999
77 3 6.3703427964 11.3411156338 10.6625089201
78 3 5.5537185306 12.1475697589 11.8118484864
79 2 3.4946306633 20.1830867412 10.4775362943
80 3 2.6792994438 19.8388309411 10.2231502559
81 3 3.9295755194 19.4253159482 10.9413257861
82 2 6.9184079990 -7.9134361728 4.4707925908
83 3 6.9774115398 -8.1653089850 3.5433411811
84 3 6.0180494172 -7.7405950250 4.7432471108
85 2 13.9041996584 -11.2904167077 2.9496768445
86 3 13.3130012167 -10.6088114568 3.1806869416
87 3 13.3254773755 -11.9927307448 2.6126311428
88 2 0.1750874485 4.1274696180 7.2169295965
89 3 -0.1101615209 4.2157555711 6.2074214976
90 3 1.1052671844 3.6392517627 7.1756662918
91 2 -2.9158369232 -0.0767674943 6.2650527448
92 3 -3.6049115341 0.2189244224 6.9026659775
93 3 -3.0068104513 0.6122753690 5.5683809665
94 2 20.0666186540 9.1479620938 2.0011460843
95 3 19.0781737305 9.1015357917 2.0668106947
96 3 20.2146541224 9.3773105647 1.0085476906
ITEM: TIMESTEP
6
ITEM: NUMBER OF ATOMS
96
ITEM: BOX BOUNDS pp pp pp
0 9.850000
0 9.850000
0 9.850000
ITEM: ATOMS id type x y z
1 2 6.6626537097 7.6515725884 14.0281674098
2 3 6.7944156720 8.3131968544 14.7803841471
3 3 5.6624929558 7.7123837427 13.7954449441
4 2 1.8733764736 7.0324911243 12.1786101585
5 3 1.4409894357 6.1962850920 11.9635801675
6 3 1.2151010574 7.7253619296 12.0200509483
7 2 -5.8837896388 7.0268095839 -0.8471646003
8 3 -5.0420773476 7.0122064391 -0.2863829989
9 3 -5.5179803566 7.1380732161 -1.7321920335
10 2 13.0202252982 14.3435480913 9.5960611433
11 3 13.5291469007 14.1597837892 10.3923372225
12 3 13.2971954917 15.3001895969 9.3375425262
13 2 0.7157219985 -5.4128997911 11.5189817761
14 3 0.9207156350 -5.3752031343 10.5771101579
15 3 1.2971172476 -6.1507079469 11.8382043645
16 2 -5.4625114755 7.9663331979 -3.5471270172
17 3 -6.1740829236 7.3973657434 -3.9656894124
18 3 -5.9127538591 8.7304183049 -3.1662798633
19 2 7.8935653520 -2.2123645198 7.9206235960
20 3 7.5203095592 -1.4391018910 7.4719537664
21 3 7.4030281871 -2.3034916838 8.7751889690
22 2 -2.0650724215 4.2827942276 2.4122632878
23 3 -1.2133330460 4.3755066942 1.9179795642
24 3 -2.4691390936 3.5144349027 1.9970920159
25 2 20.8692690857 -9.3135111944 14.6177405822
26 3 20.5180870869 -8.6751833090 15.2451694285
27 3 20.1280981165 -9.9684966361 14.3912272117
28 2 2.3875757348 -3.3276426309 5.0764113447
29 3 2.1821650626 -3.0885368436 4.1516184469
30 3 2.5420413308 -4.2885523489 5.0951508523
31 2 14.3497316958 3.5847836215 2.2664121029
32 3 13.5805937842 3.1250594122 2.6007795294
33 3 14.7949538522 4.0252933156 2.9999195348
34 2 0.9279862765 -0.8871211577 -10.5454833790
35 3 0.2578955318 -0.3567382229 -11.0506410432
36 3 0.7122034625 -1.7650342069 -10.8290289841
37 2 8.9450003721 -4.9506806788 4.7522746318
38 3 8.2636933045 -5.1269127509 4.0107141986
39 3 9.3697443003 -4.1165660948 4.5094309645
40 2 7.4437023958 -1.1919507793 11.8959955431
41 3 7.1435813207 -1.5890109827 12.8917153605
42 3 7.0682934417 -0.2796027286 11.8142352871
43 2 10.7413851928 6.2881670485 8.9296083570
44 3 11.7096955483 6.2493369398 8.9790369028
45 3 10.5159586786 5.4528591857 8.3981898842
46 2 2.1734270091 12.0461449108 2.6419788767
47 3 1.6574633309 11.6936849991 3.3807921293
48 3 2.3271853787 11.3285201984 2.0382784425
49 2 -3.6208098680 16.4244339256 20.2718802147
50 3 -3.0921215894 15.5756157608 20.2635773845
51 3 -3.1597170497 17.0907029990 20.8450998883
52 2 2.6545056095 0.0550226342 -2.7273246266
53 3 2.0993831516 -0.4996287917 -2.1956552112
54 3 2.4105125978 0.0012370144 -3.6440371415
55 2 -9.9782895770 17.5844231020 15.5064330751
56 3 -9.1319126416 17.1906479477 15.6501831700
57 3 -10.4484327810 17.3136444867 16.3521418019
58 2 -3.8270140363 21.2113645599 8.6854175217
59 3 -4.7407325829 21.2362330857 8.9606466959
60 3 -3.5154586104 22.1485603801 8.7376075520
61 2 13.9720886942 3.6250788883 5.1212782853
62 3 14.5093681720 4.3771906190 5.4619773602