-346705.375 
-346713.466 
-346711.839 
-346717.476 
-346709.839 
-346716.820 
-346715.587 
-346700.494 
-346691.960 
-346703.155 
-346684.900 
-346689.981 
-346692.696 
-346691.749 
-346677.819 
-346689.350 
-346680.614 
-346682.233 
-346671.143 
-346649.186 
