ITEM: TIMESTEP
0
ITEM: NUMBER OF ATOMS
96
ITEM: BOX BOUNDS pp pp pp
0 9.850000
0 9.850000
0 9.850000
ITEM: ATOMS id type x y z
1 2 6.7097858609 7.6651267004 14.3526235265
2 3 7.1063914502 8.3457063801 15.0379851528
3 3 5.8045377894 7.5636277166 14.7161252371
4 2 2.0430655692 6.1721570994 12.6550583419
5 3 1.9561495262 5.5660132164 11.9026206453
6 3 1.3601473728 6.8228754499 12.4359758755
7 2 -5.3710782224 6.5532139157 -0.9298573039
8 3 -4.5248805381 6.8714821554 -0.4378247860
9 3 -5.3353087814 6.8196520300 -1.8855368589
10 2 13.2867083533 14.0413570742 9.5397471350
11 3 13.5419576833 14.0111295036 10.4412567336
12 3 13.7699848742 14.8784554123 9.2218316022
13 2 0.8455467051 -5.8681404823 10.9180091197
14 3 1.3344151581 -6.0704947413 10.1005600381
15 3 1.1234627914 -6.6181549431 11.6246812996
16 2 -5.6703311497 7.4276366087 -3.7034816616
17 3 -6.4588020604 6.8557602035 -3.8809686372
18 3 -6.1021435105 8.2305765702 -3.4871529332
19 2 7.4410964621 -2.3392240728 8.1041584959
20 3 7.2692422843 -1.4017390388 8.0078411416
21 3 7.0548077559 -2.7184220914 8.9637846742
22 2 -1.6114169358 4.4538216119 1.6667959750
23 3 -0.7608008512 4.1988957519 1.3916691675
24 3 -2.1945824655 3.7850788741 1.3382749135
25 2 20.7344439006 -10.0362609121 14.2941927969
26 3 20.1831585175 -10.6099718710 14.8768060694
27 3 20.4558505170 -10.4420357692 13.4631987536
28 2 1.9507414690 -4.4118415488 5.4391531052
29 3 2.0700336908 -4.2603520316 4.4604197218
30 3 2.4613195806 -5.2139737594 5.6858905763
31 2 14.5684494844 4.5841409216 2.2866445088
32 3 14.4505074580 4.3682811665 3.2482897592
33 3 15.1554671435 5.3678600074 2.3290182010
34 2 1.1806607034 -0.3816652365 -10.7002234988
35 3 0.4109714770 0.0661165648 -11.1715129759
36 3 1.1276756092 -1.3789936823 -10.7886278085
37 2 8.5371067050 -4.6115238404 4.4329364368
38 3 8.6877703863 -4.9026740872 3.5215911363
39 3 8.9694547577 -3.7149964598 4.6031977662
40 2 7.3331322580 -0.7968346470 12.1569133401
41 3 6.9198880777 -1.3306971584 12.9421015803
42 3 7.0387421126 0.1278775393 12.0850158797
43 2 11.1108935134 6.6673069723 8.3588544995
44 3 12.0009471692 6.4419590650 8.6756687343
45 3 10.5959969227 5.8921575553 8.5678971668
46 2 2.0158602636 12.0895486416 2.7142047956
47 3 1.7350126042 11.2966231863 3.2041505275
48 3 2.6856685119 11.7374739419 2.1350724131
49 2 -3.2671354763 16.4119112819 20.3993471477
50 3 -2.4242082686 15.8596762562 20.5600865734
51 3 -3.1224005470 17.1639756759 21.0215129759
52 2 2.9994380100 0.1853529127 -3.1630189661
53 3 2.1724191170 0.0871300251 -2.6360647319
54 3 2.6151473935 0.2429638954 -4.1068203260
55 2 -10.0777434639 17.2071956162 15.6935011836
56 3 -9.3776191308 16.7696197513 16.1771060453
57 3 -10.8844439006 17.1729802836 16.2777773246
58 2 -4.1349927836 20.8134567483 9.1135969800
59 3 -5.0424163332 21.0570172730 8.9424064220
60 3 -3.6345765073 21.6545424137 8.8915914883
61 2 14.4075604789 3.6878064882 5.0340094908
62 3 14.9625907898 4.3434019102 5.5321768187
63 3 13.8144035257 3.4295102360 5.7797762442
64 2 -0.5661395774 -8.8025987763 7.3691770996
65 3 -0.4016169778 -7.9318745367 7.0127034428
66 3 -1.5138161680 -9.0582196649 7.1725984902
67 2 7.3560151449 -6.3369243503 8.6655512680
68 3 7.2141779633 -5.6939453001 7.9155965592
69 3 8.1729259236 -6.7583451310 8.3727524303
70 2 12.8746231096 12.8470496460 -2.6631195771
71 3 12.9305170234 13.0822453214 -1.7238785877
72 3 12.8911314227 11.8872802283 -2.6196570741
73 2 -3.4635452878 5.2276644419 -3.3093771032
74 3 -3.5092625036 6.1605154487 -2.9198745879
75 3 -2.7249766148 5.1865627777 -3.9370015727
76 2 6.1257264888 11.6578880174 11.7675244315
77 3 5.8245282094 11.4600931974 10.8314995312
78 3 5.8314072712 12.5693110812 11.9000297223
79 2 3.2198159684 20.7086029344 10.4451236600
80 3 2.6466340029 20.0434126516 10.1083979380
81 3 3.7355364961 20.1496341918 11.1000784112
82 2 6.5964292375 -8.0510805200 4.5842228995
83 3 6.3951286814 -8.2450276019 3.5974275663
84 3 5.8300006843 -7.4602897220 4.7539603815
85 2 13.5432137220 -10.9394514131 2.7604348005
86 3 12.8858114625 -10.8293112658 3.4542943318
87 3 13.1630056054 -11.8045424137 2.4835868863
88 2 0.2177500710 3.7074544268 6.9263810844
89 3 0.3282492476 4.1542802642 6.0241377280
90 3 1.1169434959 3.4744059813 7.2848409841
91 2 -2.9291518068 0.0053503059 6.4241907448
92 3 -3.7466949470 0.3362516448 6.8711630700
93 3 -2.9171978179 0.5190046941 5.6172026371
94 2 19.9577113654 8.5365543285 2.0794588761
95 3 18.9944020322 8.7788138578 2.0693751466
96 3 20.2182986633 8.9446443929 1.2763904753
ITEM: TIMESTEP
1
ITEM: NUMBER OF ATOMS
96
ITEM: BOX BOUNDS pp pp pp
0 10.067163
0 10.067163
0 10.067163
ITEM: ATOMS id type x y z
1 2 6.7946537873 7.8757279222 14.5585589761
2 3 7.4205749024 8.3287020372 15.2348212125
3 3 5.9831705178 7.7231453346 15.0686625082
4 2 2.1001520794 6.4040114218 12.8956148285
5 3 2.0046880938 5.7039036143 12.2133626066
6 3 1.4644545397 7.0940031097 12.7222684677
7 2 -5.4923584149 6.7527309641 -0.9805334021
8 3 -4.7231703953 7.0868768048 -0.4142794444
9 3 -5.3215153871 7.0819653451 -1.8999826695
10 2 13.5177476903 14.3929386006 9.8047228567
11 3 13.8268894833 14.2245628165 10.6785008796
12 3 14.1794507111 15.0500892272 9.4432738595
13 2 0.9077745334 -5.9629864268 11.1569735359
14 3 1.4717530264 -6.0032288863 10.3423136882
15 3 1.2123079572 -6.7852771543 11.7156678035
16 2 -5.8548204358 7.6012734681 -3.8219102889
17 3 -6.4877966037 6.8909380637 -4.0224126261
18 3 -6.2694087808 8.4359740522 -3.7923089214
19 2 7.6430570846 -2.3502212097 8.2252600991
20 3 7.6440285345 -1.4138357150 8.4007720273
21 3 7.4207936697 -2.7111863420 9.1611553729
22 2 -1.6858859953 4.5351030019 1.6638725989
23 3 -0.8640278123 4.2829679842 1.3271996289
24 3 -2.2546076219 3.7704876721 1.5111585559
25 2 21.1513035273 -10.2736978417 14.6243549705
26 3 20.4917941478 -10.4708340610 15.3099333290
27 3 20.8222784195 -10.5120222605 13.7602057275
28 2 2.1271525431 -4.5187581767 5.5488398513
29 3 2.0362401983 -4.4515705844 4.5516879253
30 3 2.6726562991 -5.3022238989 5.6585721157
31 2 14.8681455514 4.6147388742 2.3409757759
32 3 14.7831065740 4.3730307407 3.2833761074
33 3 15.3647541675 5.4291520644 2.1963843182
34 2 1.1413499959 -0.3943800013 -11.0192067662
35 3 0.3084139389 -0.0593366111 -11.4463334976
36 3 1.1070947801 -1.3896182302 -11.1137403898
37 2 8.7507934762 -4.7245862540 4.5318504567
38 3 8.6999520774 -4.7593650329 3.5585441192
39 3 9.2493416916 -3.8891249289 4.7742900596
40 2 7.5258813976 -0.8884896740 12.4328525356
41 3 7.1363100411 -1.3187085090 13.3167039345
42 3 7.2120751803 0.0298343167 12.5510222794
43 2 11.2538087273 6.7914486587 8.5807838395
44 3 12.1504394906 6.4947088606 8.8800373997
45 3 10.6279381707 6.1021498025 8.8456067516
46 2 2.0816227712 12.3570188599 2.7745463006
47 3 1.6347684493 11.6554345526 3.2718703672
48 3 2.5676721749 11.9310737422 2.0585981990
49 2 -3.3167660773 16.7565411335 20.8527713402
50 3 -2.5528522414 16.1258764828 21.1050499552
51 3 -3.2150980308 17.6356271415 21.2723174524
52 2 3.1129157163 0.1871009647 -3.1650897988
53 3 2.4277466040 -0.0216961855 -2.4977157892
54 3 2.6373484826 0.1516063997 -4.0711542573
55 2 -10.3441752649 17.5884237548 16.0667464651
56 3 -9.5643926318 17.2320253678 16.5023500398
57 3 -10.9692045356 17.6424029595 16.8481753583
58 2 -4.1418099514 21.3754464032 9.3154519682
59 3 -5.0961077477 21.4315579287 9.2529649926
60 3 -3.7318339931 22.2409826117 9.0305821254
61 2 14.7442963870 3.7300045762 5.1437306993
62 3 15.3607272295 4.2775202129 5.6650483845
63 3 14.0412105260 3.4458265997 5.7525585393
64 2 -0.5442480650 -8.9909140629 7.5706176888
65 3 -0.3262928768 -8.2056597106 7.0647444001
66 3 -1.4248082708 -9.2850215048 7.2195452293
67 2 7.5714637020 -6.4503093109 8.8352233409
68 3 7.2405630104 -5.7350606921 8.2317904751
69 3 8.2459108937 -6.9154610949 8.3955708358
70 2 13.1177188440 13.1522339878 -2.6622215311
71 3 13.2701879546 13.4325896348 -1.7518039850
72 3 13.3279222281 12.2427605933 -2.8144422006
73 2 -3.5252694741 5.4059310850 -3.3902334321
74 3 -3.4263296033 6.2958956146 -2.9178198298
75 3 -2.8310244437 5.4935959718 -4.0585531595
76 2 6.2163851890 11.8909204908 12.0208216420
77 3 6.1009113780 11.5949023589 11.0835016486
78 3 5.8906473482 12.8081287366 12.1341999161
79 2 3.3305484491 21.0785805463 10.6825800938
80 3 2.7108988399 20.5068925741 10.2839539611
81 3 3.9611136664 20.5813581786 11.2650281144
82 2 6.7185867398 -8.1787376680 4.7369811154
83 3 6.4157784335 -8.6384912281 3.8958995630
84 3 5.9621093354 -7.7156919124 5.1171521881
85 2 13.8510951211 -11.2006216815 2.8089472472
86 3 13.3180551324 -11.0491622426 3.5460933423
87 3 13.8294778368 -12.1363588221 2.5631638506
88 2 0.2610040024 3.7511303203 7.1354091067
89 3 0.1961907531 4.4231699231 6.4155569895
90 3 1.2826669181 3.6699807770 7.1545343363
91 2 -2.9934301947 -0.0264501630 6.5673990696
92 3 -3.8868849235 0.0966207151 6.9640632612
93 3 -3.0920829681 0.5227599733 5.8002365527
94 2 20.4256157386 8.7976362553 2.1191868761
95 3 19.4433791950 8.8676803789 2.1073728672
96 3 20.7959664556 9.1158320612 1.3400808428
ITEM: TIMESTEP
2
ITEM: NUMBER OF ATOMS
96
ITEM: BOX BOUNDS pp pp pp
0 10.099771
0 10.099771
0 10.099771
ITEM: ATOMS id type x y z
1 2 6.7619235991 7.9307614512 14.5325626342
2 3 7.4360681431 8.1110951169 15.2423353946
3 3 5.9256581206 7.8536862350 15.0185560689
4 2 2.1328842879 6.5158085334 12.9023718864
5 3 1.8126220318 5.7276194647 12.3536015204
6 3 1.4246088474 7.1377566902 12.7167556998
7 2 -5.5323914558 6.8311233040 -1.0286377893
8 3 -4.7646934219 6.9186590203 -0.3938454881
9 3 -5.3279824928 7.2837145992 -1.8878025936
10 2 13.5108807201 14.4662437878 9.8803213313
11 3 13.8790097517 14.1702559562 10.7167309269
12 3 14.1266471898 15.1800318462 9.5621497704
13 2 0.9574966482 -5.9496560617 11.1930079820
14 3 1.5854220983 -5.8362529353 10.4216829927
15 3 1.3376199065 -6.6788141165 11.8212072970
16 2 -5.9053911234 7.6215671229 -3.8648615379
17 3 -6.5671304442 6.9830167971 -4.1904648128
18 3 -6.4300752384 8.4383515701 -3.8429507201
19 2 7.6992053810 -2.3126640770 8.2086865960
20 3 7.7306380568 -1.3625681677 8.3463600359
21 3 7.7425400178 -2.8135512914 9.0953468980
22 2 -1.7386687579 4.5586805052 1.6371908914
23 3 -0.9393882777 4.3985894913 1.1963138492
24 3 -2.2442479342 3.7127288572 1.6476667962
25 2 21.2114337263 -10.2809439940 14.7005857144
26 3 20.4437462998 -10.2943267059 15.3099205292
27 3 20.8074044847 -10.6198133131 13.8881515868
28 2 2.2573705924 -4.5301563852 5.5536364012
29 3 1.9837738221 -4.3723620356 4.5980403972
30 3 2.7969551828 -5.3079686017 5.5662911450
31 2 14.8959767965 4.5421682540 2.3384745702
32 3 14.8197679321 4.5169709498 3.3061389574
33 3 15.3903638260 5.3569440477 2.2008390601
34 2 1.0921850803 -0.4226272822 -11.1094401518
35 3 0.4029066497 0.1199628423 -11.6206446855
36 3 0.9840074126 -1.3866352680 -11.3128837306
37 2 8.7971880296 -4.7638342043 4.5655906112
38 3 8.4983292642 -4.6740470676 3.6360263561
39 3 9.2789181631 -3.9327590171 4.8078471331
40 2 7.5783451506 -0.9581687852 12.4722957791
41 3 7.1585817033 -1.4488214927 13.3215544745
42 3 7.2956673676 -0.0279957134 12.4380476818
43 2 11.2047719639 6.8049735450 8.6492930022
44 3 12.0753827268 6.3663674651 8.9083162599
45 3 10.5210940755 6.1474429932 8.9495499511
46 2 2.1147539964 12.3951251237 2.7743418193
47 3 1.4847055636 11.8680477851 3.2858808871
48 3 2.3477571636 11.7815585223 2.0452494975
49 2 -3.3009938647 16.8076140322 20.9259035660
50 3 -2.7843635256 16.0492909947 21.3903023525
51 3 -2.9849059064 17.6088787746 21.4103458383
52 2 3.1521561542 0.1855363836 -3.1215085708
53 3 2.6381197506 -0.1230206935 -2.3453393194
54 3 2.4184573991 0.2057695945 -3.8427570769
55 2 -10.4185290368 17.6670887876 16.1664413690
56 3 -9.5229014958 17.3545867265 16.3860346784
57 3 -10.9187340743 17.7725056392 17.0215291778
58 2 -4.0775423880 21.5410217178 9.3424891051
59 3 -5.0476867893 21.5514146489 9.4838321331
60 3 -3.8301472556 22.4218392536 8.9625353480
61 2 14.8092660783 3.7091033164 5.1479721401
62 3 15.3272098591 4.2969832298 5.7334786580
63 3 14.1727983674 3.3668628675 5.8188495072
64 2 -0.5285115708 -9.0206939457 7.6255641863
65 3 -0.1531463144 -8.2310353067 7.1681192022
66 3 -1.3266980015 -9.3483464951 7.1614088559
67 2 7.6232265156 -6.4540923416 8.8545318103
68 3 7.1805470337 -5.8115491106 8.2212305298
69 3 8.2802006339 -6.7837068836 8.2873495247
70 2 13.1269047715 13.2240488741 -2.6425915736
71 3 13.5155436938 13.4268710555 -1.7855656076
72 3 13.2781913779 12.2739131959 -2.7048244645
73 2 -3.4957561885 5.4846650656 -3.4073563148
74 3 -3.4547159388 6.3588414795 -2.9274713191
75 3 -2.9203980895 5.5195977532 -4.1856535284
76 2 6.2080364580 11.9099418169 12.0556424548
77 3 6.2408897212 11.7136146724 11.0807891204
78 3 5.6909772570 12.7628682196 12.0541012917
79 2 3.3892085776 21.0836779058 10.7275329477
80 3 2.6953455122 20.5535521357 10.3257595866
81 3 3.8709060579 20.3726854494 11.2208196554
82 2 6.7246740263 -8.2071302483 4.8136873537
83 3 6.3059508316 -8.5321720714 3.9726024210
84 3 5.9624817553 -7.6816780606 5.1321349694
85 2 13.9352973101 -11.2427328762 2.7952444593
86 3 13.4014332676 -11.1910700714 3.5521636003
87 3 14.0135020288 -12.2107440750 2.8008846018
88 2 0.2955316071 3.7446097895 7.2117321437
89 3 -0.0730261330 4.4202132420 6.6558870667
90 3 1.2900327519 3.6052066967 7.0026349662
91 2 -3.0145712398 -0.0566561101 6.5766534349
92 3 -3.7991726100 -0.1879643646 7.1417380261
93 3 -3.1633889473 0.7055271750 6.0158077315
94 2 20.5205789220 8.8827329883 2.1320464502
95 3 19.5395819004 8.9020280504 2.0312675717
96 3 20.7919378029 9.1999380920 1.2844470048
ITEM: TIMESTEP
3
ITEM: NUMBER OF ATOMS
96
ITEM: BOX BOUNDS pp pp pp
0 9.951235
0 9.951235
0 9.951235
ITEM: ATOMS id type x y z
1 2 6.6019478995 7.8044994692 14.2781692580
2 3 7.2144941348 7.9180495018 15.0025558536
3 3 5.7284031515 7.9675726414 14.6749389956
4 2 2.1085143029 6.4929293826 12.6805797573
5 3 1.7341362943 5.6448694142 12.2702739438
6 3 1.4847061227 7.2063365720 12.4968433520
7 2 -5.4765985609 6.7718994589 -1.0473862308
8 3 -4.6207646981 6.7410857623 -0.5423404858
9 3 -5.2754530776 7.2270116591 -1.9094012752
10 2 13.2820668080 14.2683033357 9.7569634910
11 3 13.7117253472 14.0152700993 10.6012412901
12 3 13.6112527250 15.1952661980 9.5720440875
13 2 0.9764766574 -5.8099984260 11.0307952460
14 3 1.7349748515 -5.7131941519 10.3710142001
15 3 1.3989347420 -6.4474126683 11.7208742619
16 2 -5.8541694199 7.5108886296 -3.8509518792
17 3 -6.4753729986 6.8245012292 -4.1314264550
18 3 -6.2882078064 8.3887046763 -3.6669800854
19 2 7.6164906726 -2.2512960432 8.0388782871
20 3 7.6422997449 -1.2893944771 8.2339508966
21 3 7.7341594168 -2.6589259262 8.9586193706
22 2 -1.7748730671 4.5012656712 1.5928448815
23 3 -0.9306451378 4.3670229549 1.2137398012
24 3 -2.1288211070 3.5717769256 1.6804933393
25 2 20.8993020878 -10.0820511256 14.5093063586
26 3 20.1255498674 -10.0797641618 15.1011176025
27 3 20.6867336782 -10.5550462669 13.6867180942
28 2 2.3274547996 -4.4399518866 5.4609593404
29 3 2.0878753318 -4.1638199134 4.5110109296
30 3 2.8749021529 -5.2023477941 5.2911683134
31 2 14.6564052555 4.3948918561 2.2967367234
32 3 14.4409113988 4.3544243371 3.2308696767
33 3 15.1426243616 5.1800521112 2.0581044897
34 2 1.0411488466 -0.4484076101 -10.9728575825
35 3 0.5510792708 0.1660082527 -11.5838147421
36 3 0.8578644187 -1.3615764573 -11.2894503006
37 2 8.6676039334 -4.7211424015 4.5447377697
38 3 8.3407521501 -4.7030728672 3.6160444785
39 3 8.9843975765 -3.8207340635 4.7667448398
40 2 7.5198207465 -1.0079660562 12.2363663793
41 3 6.9515864225 -1.3044834315 13.1194930278
42 3 7.1321626930 -0.1287535857 12.0764434542
43 2 10.9579436193 6.6876323138 8.5564974119
44 3 11.8442383153 6.2518034803 8.7526145900
45 3 10.2438808140 6.0306176842 8.8284138321
46 2 2.0809840788 12.2004110924 2.7082894368
47 3 1.4140572498 11.8611412852 3.3153733407
48 3 2.4017335375 11.4685170881 2.1268135419
49 2 -3.2075799058 16.5703211592 20.6453299063
50 3 -2.8136779004 15.6588881685 20.9113446111
51 3 -2.8948962395 17.3018906475 21.2361297799
52 2 3.1182587762 0.1808725110 -3.0221104043
53 3 2.7699737610 -0.1262265611 -2.1646073015
54 3 2.2921350456 0.2842406814 -3.6019966808
55 2 -10.3030232461 17.4379243839 15.9685099493
56 3 -9.3737044374 17.1409653659 16.1436178453
57 3 -10.7006228096 17.4244023579 16.8753429662
58 2 -3.9621440465 21.3044910806 9.1972660688
59 3 -4.9170416134 21.3183174414 9.4671437083
60 3 -3.6423579027 22.1811386311 8.8665828114
61 2 14.5987866348 3.6454132295 5.1025596354
62 3 15.0279668885 4.3906173941 5.5608325711
63 3 14.0650298959 3.1671587390 5.7774766887
64 2 -0.4958294279 -8.8982840610 7.5265247244
65 3 -0.2606166870 -7.9637107379 7.2260183447
66 3 -1.2890567688 -9.1738470241 7.0387892133
67 2 7.5175037044 -6.3375880817 8.6884949884
68 3 7.0566288326 -5.6989449785 8.0762141950
69 3 8.3028700993 -6.6432923602 8.2713864177
70 2 12.9340432237 13.0333315555 -2.6051834011
71 3 13.1810308561 13.4080014411 -1.7575417415
72 3 12.8518762393 12.0717697676 -2.5388465267
73 2 -3.4130768025 5.4346278804 -3.3786712093
74 3 -3.3955114989 6.3647640429 -3.0567840545
75 3 -2.7551332087 5.4707249612 -4.1025330157
76 2 6.0957941877 11.7248387827 11.8631337153
77 3 6.2679525334 11.5359274705 10.9017333631
78 3 5.4230961099 12.4663373929 11.9448942477
79 2 3.3794935494 20.6896239745 10.5713568365
80 3 2.6330537470 20.3809564929 10.0300682112
81 3 3.6622123100 19.9769001913 11.1824499909
82 2 6.5898705573 -8.1070861391 4.8020956445
83 3 6.4869712382 -8.3160375983 3.8577271032
84 3 6.0396861685 -7.3027048351 4.9464961980
85 2 13.7758623768 -11.0820319647 2.7551878622
86 3 13.1474792977 -10.8298618541 3.4099334682
87 3 13.8515303853 -12.0303523641 2.6802566661
88 2 0.2891782683 3.6574493204 7.1564465677
89 3 -0.1103545781 4.2131091698 6.5080438189
90 3 1.2860750253 3.7513663154 6.9061383412
91 2 -2.9711349130 -0.0929188619 6.4729944926
92 3 -3.6432357302 -0.2049919654 7.1598350819
93 3 -3.3078897650 0.6646798629 5.9625658250
94 2 20.2244920264 8.8010980387 2.0840717167
95 3 19.2380356495 8.8403914454 2.1639412250
96 3 20.5134730933 9.1284285142 1.2299136850
ITEM: TIMESTEP
4
ITEM: NUMBER OF ATOMS
96
ITEM: BOX BOUNDS pp pp pp
0 10.168377
0 10.168377
0 10.168377
ITEM: ATOMS id type x y z
1 2 6.6647676129 7.9578811160 14.5782234709
2 3 7.1954221333 8.2326243717 15.2890625426
3 3 5.8074974048 8.2876209157 14.8767477500
4 2 2.1454596462 6.6958358161 12.9470671126
5 3 1.6936352693 5.9417949350 12.4170574747
6 3 1.5759031001 7.4315525405 12.6664164969
7 2 -5.6203025285 6.9512399151 -1.0957914839
8 3 -4.7349237542 6.9917063752 -0.7284936791
9 3 -5.6120161687 7.1595146382 -2.0708642945
10 2 13.5492267340 14.6175135970 9.9925035206
11 3 14.0183768738 14.4971983403 10.8608407879
12 3 13.7223390114 15.5656772935 9.8051199163
13 2 1.0332823193 -5.8708952573 11.2930227618
14 3 1.8183700927 -5.7927840867 10.6728826235
15 3 1.2808373975 -6.6218697031 11.9297900829
16 2 -5.9838018424 7.6902626101 -3.9722522758
17 3 -6.7098863306 7.0660774199 -4.0394640110
18 3 -6.4722268890 8.5498903483 -3.7247003297
19 2 7.8341769673 -2.2692864631 8.1975759847
20 3 7.8789253924 -1.2859587028 8.2860240092
21 3 7.7007654683 -2.6484970774 9.1161777032
22 2 -1.8711767264 4.5908778971 1.6128748063
23 3 -0.9680458841 4.5380969331 1.3876799389
24 3 -2.2291013407 3.6684828793 1.6907421502
25 2 21.3679100934 -10.2337820595 14.8673579337
26 3 20.5490023414 -10.4732275019 15.3398949314
27 3 21.1998492486 -10.7035890702 14.0262148742
28 2 2.4735490780 -4.5087307353 5.5376281038
29 3 2.2727618114 -4.0295720445 4.6810880333
30 3 3.0569098876 -5.2382514809 5.3162806189
31 2 14.9482089702 4.4010925303 2.3221243858
32 3 14.6676176759 4.3901185043 3.2299933085
33 3 15.4526338737 5.2124537231 2.2709023715
34 2 1.0383697256 -0.4932731386 -11.2201100198
35 3 0.4497874331 0.0755066191 -11.7574629883
36 3 0.8803153374 -1.4160136756 -11.4889619733
37 2 8.8436612037 -4.8416009112 4.7000490459
38 3 8.6628332642 -4.9774234268 3.7489633199
39 3 9.0256535274 -3.9095286902 4.8467864508
40 2 7.7363114903 -1.0712363188 12.4311166206
41 3 7.3329012229 -1.3504744980 13.3756210874
42 3 7.2608502406 -0.3277276264 12.0473037796
43 2 11.1069439262 6.8168174603 8.7792482890
44 3 12.0177157680 6.4421075000 8.9146879226
45 3 10.5046350356 6.0448176442 9.0107091335
46 2 2.1084869498 12.4712974728 2.7652339309
47 3 1.5782109665 12.0099196760 3.4345854355
48 3 2.5521383221 11.7206105141 2.2724498709
49 2 -3.2597299402 16.9467967922 21.1102332113
50 3 -2.6040262579 16.1724687700 21.1961640843
51 3 -2.9695835835 17.5569617950 21.8298287740
52 2 3.1968256558 0.1905934381 -3.0328148076
53 3 2.8469784300 -0.1525460962 -2.1914868487
54 3 2.3749368931 0.2001827583 -3.5890078847
55 2 -10.5629499635 17.8444493907 16.3520981286
56 3 -9.6397420178 17.5178559866 16.5091474820
57 3 -11.0669623256 17.7234313994 17.1841633265
58 2 -3.9879121605 21.8196156472 9.3959550615
59 3 -4.9576960173 21.9838003322 9.5477293462
60 3 -3.5933055173 22.7003105446 9.1801106580
61 2 14.9204015564 3.7451469583 5.2632520380
62 3 15.2786416112 4.5227639389 5.7083501867
63 3 14.5862961222 3.2606204282 6.0427514314
64 2 -0.4976878213 -9.0848688646 7.6630105571
65 3 -0.3686492370 -8.0950207514 7.5558855510
66 3 -1.3394214436 -9.3541881397 7.3056643212
67 2 7.6736175003 -6.4375596090 8.8369178059
68 3 7.4527121835 -5.8212149364 8.0959306169
69 3 8.5992129640 -6.6761628865 8.6155367301
70 2 13.2260477485 13.3177189032 -2.6863006123
71 3 13.3145889480 13.7450879557 -1.8400385860
72 3 13.1014142654 12.3884157699 -2.4056530509
73 2 -3.4560544470 5.5743563021 -3.5039745094
74 3 -3.5461688197 6.4872511448 -3.2593586486
75 3 -2.7223300655 5.4511612679 -4.1361216523
76 2 6.2280011398 11.9545251695 12.1313303162
77 3 6.3519754127 11.9253945810 11.1499674270
78 3 5.4582761589 12.5921736683 12.1995865330
79 2 3.4884176604 21.0515955648 10.8053201440
80 3 2.7304735960 20.7624296578 10.2246435482
81 3 3.5621079028 20.2794504775 11.3777562562
82 2 6.7200187957 -8.2941223065 4.9475177416
83 3 6.9345957139 -8.4744807092 4.0354799067
84 3 6.2202063411 -7.4552992714 4.8974912634
85 2 14.1395671759 -11.3048540807 2.8122633934
86 3 13.3998044285 -11.0682911002 3.4106554004
87 3 13.8401037078 -12.2133489018 2.6999958788
88 2 0.2782799480 3.7360289883 7.3416344303
89 3 -0.0983683250 4.0456624165 6.5364357623
90 3 1.2765336953 3.8751964984 7.3410841513
91 2 -3.0312631413 -0.1300391077 6.6088555415
92 3 -3.5997828867 -0.0325342443 7.3712766675
93 3 -3.3871927955 0.4731221333 5.9422640869
94 2 20.6764937091 9.0252023337 2.1071260245
95 3 19.7108613268 9.1645390351 2.2078608671
96 3 20.7912032018 9.3959541959 1.1955940028
ITEM: TIMESTEP
5
ITEM: NUMBER OF ATOMS
96
ITEM: BOX BOUNDS pp pp pp
0 10.080459
0 10.080459
0 10.080459
ITEM: ATOMS id type x y z
1 2 6.5315957991 7.8921478613 14.4588161090
2 3 6.9236150077 8.3124977367 15.1771170714
3 3 5.6032823796 8.1571311470 14.4930152535
4 2 2.0873562079 6.7068278676 12.8167795267
5 3 1.8142295054 5.8969772267 12.2439711652
6 3 1.5029490229 7.4641623831 12.5891671572
7 2 -5.6273842850 6.9151151488 -1.1180444449
8 3 -4.7256484274 7.0134184664 -0.8744618815
9 3 -5.5962743811 6.9079514606 -2.1142705732
10 2 13.4149816144 14.5449037420 9.9234297385
11 3 13.9013079531 14.4180681429 10.7889186893
12 3 13.8377682599 15.3684260738 9.5534925943
13 2 1.0333973917 -5.7393227881 11.2375113762
14 3 1.8269232814 -5.7121753543 10.6202103846
15 3 1.1640342484 -6.6107781007 11.7248664133
16 2 -5.9323925124 7.6508148671 -3.9604560171
17 3 -6.5921094526 6.9617150623 -4.0212183135
18 3 -6.2690992736 8.5734882765 -3.6525215191
19 2 7.8090284755 -2.2313617686 8.1319301245
20 3 7.8502361559 -1.2365002538 8.0900973060
21 3 7.4157539909 -2.4670506368 9.0098767523
22 2 -1.8961368120 4.5584192622 1.6012746616
23 3 -0.9624504380 4.3637395626 1.4652604706
24 3 -2.3402692058 3.6823454607 1.5340150538
25 2 21.1941311096 -10.0861992591 14.7868288145
26 3 20.5132244060 -10.5380978382 15.3157516531
27 3 21.1213921048 -10.3680852646 13.8429040072
28 2 2.5279459403 -4.4252461890 5.4482552034
29 3 2.3383241412 -3.9952688332 4.5518779527
30 3 3.1207200712 -5.1614036649 5.2039497934
31 2 14.7899966128 4.2855889631 2.2769080763
32 3 14.3804557748 4.1150453637 3.1182569601
33 3 15.4112524006 5.0177425796 2.3441990061
34 2 1.0197020285 -0.5111217818 -11.1027600263
35 3 0.2827459342 -0.0341753640 -11.5224938194
36 3 0.8203414951 -1.4587177216 -11.1856976138
37 2 8.7501618033 -4.8178366055 4.7298776645
38 3 8.6653409130 -5.0499048895 3.7911255786
39 3 8.9862264193 -3.8931659890 4.7348210991
40 2 7.7420361213 -1.0883269403 12.2344970991
41 3 7.2239030313 -1.3467483397 13.1286020431
42 3 7.0446427402 -0.5162456722 11.8740104554
43 2 10.9221789414 6.7313965308 8.7395927597
44 3 11.8677860588 6.5209346764 8.8010575035
45 3 10.4362534943 5.8748033496 8.8679418002
46 2 2.0789304451 12.3616767543 2.7708273704
47 3 1.7507232101 11.7660858151 3.4707717630
48 3 2.6353129302 11.8268149489 2.0948918163
49 2 -3.2289090332 16.8151774615 20.9193839867
50 3 -2.5597592126 16.0632847331 20.9700788831
51 3 -2.9761234421 17.5229950104 21.5649070133
52 2 3.1667612645 0.1874523788 -2.9402585547
53 3 2.7148481074 -0.1977384936 -2.1528095130
54 3 2.4702076046 0.1619860127 -3.6171606516
55 2 -10.5163138664 17.7232573463 16.2169116540
56 3 -9.7002761638 17.2465068386 16.5298679774
57 3 -11.0971484932 17.5658479453 16.9901592464
58 2 -3.8879080736 21.6783535845 9.3164759273
59 3 -4.8597028008 21.8579139853 9.2339628592
60 3 -3.4066615782 22.4921672995 8.9908204408
61 2 14.7942221063 3.7633862262 5.2835884081
62 3 15.3668050413 4.4603940024 5.6336396667
63 3 14.4416049705 3.2621932171 6.0323006660
64 2 -0.5081662613 -9.0115048509 7.5707967712
65 3 -0.3138432081 -8.0096487426 7.4865640878
66 3 -1.3952026387 -9.1410927554 7.2861915154
67 2 7.6069181026 -6.3374869881 8.6970306239
68 3 7.4341453727 -5.7311256575 7.9513798629
69 3 8.6021520867 -6.4706315060 8.8318832014
70 2 13.1178746770 13.2123792382 -2.6664655391
71 3 13.3486090028 13.6649418939 -1.8586568211
72 3 13.0676002529 12.2256769263 -2.5112691751
73 2 -3.4144912983 5.5108592284 -3.5174421144
74 3 -3.4473255900 6.4505269590 -3.4565054282
75 3 -2.6943205223 5.4245069800 -4.2050256629
76 2 6.1848671545 11.8332588910 12.0538898022
77 3 6.2245598724 11.7016250687 11.0738504220
78 3 5.3917467918 12.3729577820 12.2581424193
79 2 3.4668468558 20.7702370267 10.7252857370
80 3 2.6739909337 20.5419420179 10.1350717623
81 3 3.7330784520 20.0166095174 11.2437608516
82 2 6.6741984071 -8.2401793188 4.9176231570
83 3 7.0415208516 -8.3919092085 4.0755005710
84 3 5.9918645912 -7.5222620768 4.8499720973
85 2 14.0399126338 -11.2022101556 2.7976571011
86 3 13.4694785080 -10.7021192607 3.4522955934
87 3 13.6496101526 -12.0146550006 2.4814540526
88 2 0.2279721566 3.7411914454 7.3110424085
89 3 0.1431370425 3.8878206493 6.3583923399
90 3 1.2317367126 3.6375621014 7.3004035246
91 2 -3.0052262458 -0.1613994675 6.5603772886
92 3 -3.5477033732 0.2489836008 7.2379030324
93 3 -3.1956496841 0.5239177763 5.8680233725
94 2 20.5107816975 8.9803448319 2.0505974022
95 3 19.5583849166 8.9917362365 2.2141298597
96 3 20.6846530548 9.2957625573 1.1098545345
ITEM: TIMESTEP
6
ITEM: NUMBER OF ATOMS
96
ITEM: BOX BOUNDS pp pp pp
0 10.026553
0 10.026553
0 10.026553
ITEM: ATOMS id type x y z
1 2 6.4345078852 7.8820416451 14.3798109077
2 3 6.4723212700 8.4070210152 15.1465071221
3 3 5.4742763815 7.8958428402 14.2330390309
4 2 2.0319622229 6.7471904579 12.7252842461
5 3 1.8176308443 5.9168828862 12.1434411740
6 3 1.2359751667 7.3118317575 12.5270572229
7 2 -5.6590479228 6.8837029283 -1.1637582415
8 3 -4.8121893861 6.9300059251 -0.7515360584
9 3 -5.5636130104 6.9731591132 -2.1531004870
10 2 13.3594803640 14.5409225958 9.8637934392
11 3 13.8607490162 14.3001861129 10.6847655012
12 3 13.9337093470 15.2378323268 9.4361975201
13 2 1.0151580539 -5.6306976467 11.2296091945
14 3 1.7098890918 -5.5566568967 10.5162095018
15 3 1.1993359003 -6.4747205093 11.7439040660
16 2 -5.8666847096 7.6421730870 -3.9473730564
17 3 -6.6151244042 7.0984266740 -4.2149974762
18 3 -6.2885954861 8.4807397030 -3.5069808873
19 2 7.8086504326 -2.2168030628 8.1120342496
20 3 7.7517245742 -1.2478873665 7.8715415890
21 3 7.4799687971 -2.3551518138 9.0230267825
22 2 -1.8994431521 4.5249941505 1.6124539041
23 3 -0.9742897942 4.2654447731 1.3851939403
24 3 -2.4964507065 3.7926367912 1.3725281929
25 2 21.1099654533 -9.9599153542 14.7514819447
26 3 20.6119636016 -10.6428929917 15.2533067086
27 3 20.8567450057 -10.2664575323 13.8271467227
28 2 2.5690289783 -4.3481665322 5.3561971398
29 3 2.2895254631 -4.0652896056 4.4266813279
30 3 3.2230635759 -5.0767094511 5.2837181221
31 2 14.6721031255 4.1784697034 2.2287057899
32 3 14.2355891637 4.0009954039 3.0725173466
33 3 15.3821312565 4.7907885936 2.5046984402
34 2 1.0115888790 -0.5380093225 -10.9921244390
35 3 0.3516432933 -0.0317444465 -11.5035017547
36 3 0.7201784028 -1.4660424899 -10.9766041611
37 2 8.6936227014 -4.8167115569 4.7677908377
38 3 8.5453384493 -5.1018847339 3.8619549210
39 3 9.0904155526 -3.9495022123 4.7895348443
40 2 7.7184657309 -1.1222639606 12.1001089437
41 3 7.3452381995 -1.5305595090 12.9592367827
42 3 7.1303007897 -0.4458199761 11.7258399459
43 2 10.7859539717 6.6699443790 8.7399764320
44 3 11.7372563259 6.5389694578 8.7895194930
45 3 10.4401220442 5.7623841356 8.7214070950
46 2 2.0807714941 12.3003763843 2.7750387304
47 3 1.9267512138 11.5767322697 3.4335724527
48 3 2.6034592191 11.8086404692 2.0308516828
49 2 -3.2445227860 16.7486655900 20.7657641260
50 3 -2.6690417066 15.9594259728 21.0195551946
51 3 -2.7857689654 17.5028275780 21.2323299164
52 2 3.1360690200 0.1822329102 -2.8578763365
53 3 2.4661100225 -0.1747225043 -2.2010554735
54 3 2.6106157764 0.2145420839 -3.6601877403
55 2 -10.5018947577 17.6516589738 16.1343739843
56 3 -9.8020421921 17.0850538247 16.5184468722
57 3 -11.2158952362 17.6527254473 16.8059538246
58 2 -3.8030651181 21.5983986874 9.2518422797
59 3 -4.7369460376 21.7160221617 8.9874736915
60 3 -3.3060514229 22.3889473986 8.8686553564
61 2 14.7324373486 3.8108861185 5.3070169825