-346705.375 
-346706.402 
-346708.691 
-346715.373 
-346710.322 
-346708.376 
-346709.351 
-346707.092 
-346711.629 
-346712.650 
-346705.062 
-346715.288 
-346709.468 
-346704.949 
-346710.248 
-346705.862 
-346699.082 
-346707.888 
-346704.701 
-346701.116 
-346694.895 
-346697.153 
-346696.009 
-346703.034 
-346703.552 
-346698.451 
-346700.750 
-346704.015 
-346706.371 
-346703.685 
-346698.702 
-346697.505 
-346695.067 
-346705.144 
-346712.215 
-346707.254 
-346708.797 
-346705.420 
-346703.295 
-346710.638 
