#     Step Nr.          Time[fs]        Kin.[a.u.]          Temp[K]            Pot.[a.u.]        Cons Qty[a.u.]        UsedTime[s]
         0            0.000000         0.199509367       300.000000000        -2.234598422        -2.033624353         0.000000000
      2000         1000.000000         0.200796308       301.935158732        -4.054673555        -1.948836043         0.002656057
      4000         2000.000000         0.191255309       287.588465293        -4.008381739        -1.865104547         0.002575915
      6000         3000.000000         0.203283218       305.674698114        -4.063007791        -1.817630047         0.002629090
      8000         4000.000000         0.190673921       286.714239217        -4.089706272        -1.756203504         0.002566624
     10000         5000.000000         0.212863937       320.081118149        -4.055152908        -1.687603689         0.003904264
     12000         6000.000000         0.185908874       279.549092066        -4.050867394        -1.631261363         0.002489496
     14000         7000.000000         0.192335499       289.212735871        -4.094164007        -1.602100479         0.002467163
     16000         8000.000000         0.208295916       313.212235353        -4.109570900        -1.604386543         0.002533674
     18000         9000.000000         0.212272467       319.191731627        -4.126999280        -1.560622367         0.002526224
     20000        10000.000000         0.196550295       295.550477283        -4.090381681        -1.525332081         0.002490312
     22000        11000.000000         0.188955005       284.129524701        -4.105531102        -1.525274861         0.002448212
     24000        12000.000000         0.210386639       316.356033264        -4.080933502        -1.512837420         0.003989737
     26000        13000.000000         0.202282727       304.170270904        -4.088735531        -1.479765206         0.002511106
     28000        14000.000000         0.221304878       332.773666559        -4.108699091        -1.464430948         0.002627328
     30000        15000.000000         0.197628042       297.171073481        -4.110996296        -1.448705692         0.002763867
     32000        16000.000000         0.195666392       294.221361753        -4.117558785        -1.448919859         0.002541028
     34000        17000.000000         0.186633431       280.638600254        -4.102294642        -1.448987423         0.002609342
     36000        18000.000000         0.180386473       271.245118288        -4.162086011        -1.448938843         0.002680209
     38000        19000.000000         0.208026870       312.807674372        -4.133541108        -1.452757741         0.002872583
     40000        20000.000000         0.194855238       293.001639010        -4.136824636        -1.448617729         0.002928112
     42000        21000.000000         0.202933552       305.148908932        -4.151653539        -1.446501981         0.002848737
     44000        22000.000000         0.182915472       275.047946323        -4.141194873        -1.440325347         0.002825174
     46000        23000.000000         0.186260630       280.078023468        -4.121277248        -1.424032336         0.015966550
     48000        24000.000000         0.234451850       352.542620575        -4.128282070        -1.413663029         0.002577025
     50000        25000.000000         0.200503448       301.494789643        -4.145973757        -1.393495272         0.006087530
     52000        26000.000000         0.205904660       309.616531508        -4.135480556        -1.377450115         0.002814822
     54000        27000.000000         0.177751966       267.283640549        -4.157364709        -1.377783723         0.004158989
     56000        28000.000000         0.180045668       270.732653880        -4.131967308        -1.377596539         0.002661891
     58000        29000.000000         0.195518574       293.999090004        -4.120735900        -1.375811470         0.006475307
     60000        30000.000000         0.194207933       292.028293716        -4.124723516        -1.372760934         0.002814025
     62000        31000.000000         0.198800417       298.933960945        -4.139772898        -1.370920730         0.002681524
     64000        32000.000000         0.188559286       283.534486716        -4.188796658        -1.369763591         0.002685577
     66000        33000.000000         0.199254917       299.617386790        -4.109205156        -1.363174723         0.002570119
     68000        34000.000000         0.205258572       308.645015245        -4.152279416        -1.354801665         0.003136985
     70000        35000.000000         0.229246003       344.714647662        -4.126170859        -1.342234341         0.002783764
     72000        36000.000000         0.201202313       302.545665003        -4.131498866        -1.337744984         0.002873346
     74000        37000.000000         0.204622028       307.687851707        -4.146590315        -1.325727907         0.002697781
     76000        38000.000000         0.213281649       320.709226948        -4.118867372        -1.321677521         0.002660062
     78000        39000.000000         0.225576106       339.196263577        -4.135707107        -1.306924803         0.002775300
     80000        40000.000000         0.206019246       309.788832593        -4.096037649        -1.305985009         0.002664477
     82000        41000.000000         0.190693600       286.743831027        -4.115067915        -1.304419627         0.002594747
     84000        42000.000000         0.210953333       317.208163484        -4.108332787        -1.300443976         0.002848294
     86000        43000.000000         0.169184455       254.400769415        -4.125929610        -1.298596713         0.002659157
     88000        44000.000000         0.213626336       321.227529012        -4.141990381        -1.289822149         0.002915543
     90000        45000.000000         0.212576455       319.648834049        -4.091284647        -1.288477039         0.002672009
     92000        46000.000000         0.175211825       263.464058322        -4.069624808         7.044176478         0.002541110
     94000        47000.000000         0.211289170       317.713157990        -4.092041438         7.048194329         0.002593696
     96000        48000.000000         0.205627809       309.200233547        -4.105483075         7.083865124         0.002747066
     98000        49000.000000         0.162671630       244.607508505        -4.073965857         7.083061640         0.002625365
    100000        50000.000000         0.199283275       299.660028193        -4.068080590         7.112885959         0.002764300
    102000        51000.000000         0.178243705       268.023062959        -4.125582241         7.084815772         0.002678078
    104000        52000.000000         0.178588999       268.542277476        -4.073661105         7.084442752         0.002622869
    106000        53000.000000         0.192437456       289.366047535        -4.049354857         7.085443247         0.002633646
    108000        54000.000000         0.186270508       280.092876790        -4.080111803         7.116078558         0.002626158
    110000        55000.000000         0.203418759       305.878509458        -4.101669490         7.130571789         0.002547767
    112000        56000.000000         0.198630835       298.678962144        -4.080170524         7.143450382         0.002741359
    114000        57000.000000         0.199116236       299.408853647        -4.139560701         7.147232375         0.002569795
    116000        58000.000000         0.195630378       294.167208732        -4.125528032         7.154358027         0.002647679
    118000        59000.000000         0.208812073       313.988375278        -4.114614353         7.152775161         0.002745394
    120000        60000.000000         0.199082481       299.358097061        -4.110959786         7.153566699         0.020033032
    122000        61000.000000         0.196538776       295.533155783        -4.092288496         7.153473637         0.004146826
    124000        62000.000000         0.195123629       293.405215704        -4.093152038         7.158641033         0.002701070
    126000        63000.000000         0.200952854       302.170555764        -4.103901131         7.164046855         0.002702232
    128000        64000.000000         0.209494307       315.014243641        -4.124640304         7.187993483         0.023551978
    130000        65000.000000         0.208179683       313.037457672        -4.103888685         7.187686812         0.002817996
    132000        66000.000000         0.188214729       283.016380427        -4.100318288         7.189865499         0.002663791
    134000        67000.000000         0.211295468       317.722629218        -4.125492916         7.189096773         0.002632890
    136000        68000.000000         0.173898583       261.489350972        -4.114248440         7.189341727         0.002985101
    138000        69000.000000         0.206275140       310.173616945        -4.124386259         7.201802839         0.002656747
    140000        70000.000000         0.178474126       268.369544392        -4.129221917         7.204905605         0.020205252
    142000        71000.000000         0.208138215       312.975103002        -4.126405269         7.202036991         0.020787556
    144000        72000.000000         0.186437378       280.343797844        -4.113087029         7.205691887         0.005935866
    144000        72000.000000         0.210108652       315.938027018        -4.099469259         7.217163049         0.003128116
    146000        73000.000000         0.183166544       275.425481177        -4.119044867         7.222524758         0.010221562
    146000        73000.000000         0.220739244       331.923128605        -4.126652124         7.206351915         0.002834707
    148000        74000.000000         0.204546377       307.574096467        -4.092737879         7.222524104         0.003056064
    150000        75000.000000         0.204852382       308.034231640        -4.125705405         7.222363681         0.008733785
    152000        76000.000000         0.206684431       310.789064571        -4.132627878         7.222511746         0.003127685
    154000        77000.000000         0.203584053       306.127059774        -4.142596820         7.222476022         0.003110143
    156000        78000.000000         0.187296219       281.635226081        -4.117187464         7.222797968         0.003035734
    158000        79000.000000         0.204702097       307.808250748        -4.112060731         7.223480702         0.003111975
    160000        80000.000000         0.193797187       291.410659343        -4.099946693         7.222388016         0.004826411
    162000        81000.000000         0.209272489       314.680698443        -4.118958183         7.223109034         0.003083655
    164000        82000.000000         0.231778917       348.523361121        -4.117848175         7.222901439         0.003246599
    166000        83000.000000         0.196291181       295.160850332        -4.124474748         7.226048027         0.003190171
    168000        84000.000000         0.189354490       284.730225222        -4.106343154         7.226018743         0.003191640
    170000        85000.000000         0.190289855       286.136723081        -4.106128394         7.225278156         0.003403017
    172000        86000.000000         0.203542837       306.065084582        -4.136567129         7.226884322         0.003117812
    174000        87000.000000         0.200672260       301.748629141        -4.076677386         7.228170706         0.003101741
    176000        88000.000000         0.214698429       322.839622245        -4.096475163         7.228571581         0.003227187
    178000        89000.000000         0.195004306       293.225791206        -4.139980468         7.228539365         0.003410117
    180000        90000.000000         0.229665575       345.345552786        -4.115151917         7.229130011         0.003066837
    182000        91000.000000         0.193423317       290.848474720        -4.171828801         7.228960816         0.003200295
    184000        92000.000000         0.186593739       280.578916100        -4.120061532         7.229160666         0.003511462
    186000        93000.000000         0.193744529       291.331477782        -4.125608505         7.234581415         0.003361475
    188000        94000.000000         0.195647026       294.192241636        -4.119384876         7.234503344         0.003354099
    190000        95000.000000         0.197132961       296.426624736        -4.138586395         7.232763622         0.007984480
    192000        96000.000000         0.206792014       310.950835317        -4.123977124         7.235897078         0.003472795
    194000        97000.000000         0.187688911       282.225713272        -4.119667865         7.240571921         0.003300889
    194000        97000.000000         0.189722608       285.283760200        -4.091032491         7.274055006         0.002468668
    196000        98000.000000         0.188709717       283.760687289        -4.102697380         7.247035410         0.003636850
    196000        98000.000000         0.205174629       308.518791226        -4.132811545         7.275994469         0.002922282
    198000        99000.000000         0.184948542       278.105051816        -4.148755721         7.249057485         0.003208148
    198000        99000.000000         0.193326463       290.702836633        -4.095476077         7.292560477         0.002506431
    200000       100000.000000         0.209752059       315.401822087        -4.095963454         7.292807644         0.007643200
    202000       101000.000000         0.221140584       332.526619135        -4.092265659         7.293721345         0.002519991
    204000       102000.000000         0.196354890       295.256649467        -4.090146787         7.294380801         0.003993221
    206000       103000.000000         0.210286921       316.206088113        -4.128563878         7.287710948         0.006288715
    208000       104000.000000         0.197439160       296.887053884        -4.094543543         7.304030872         0.002649523
    210000       105000.000000         0.188009168       282.707279799        -4.123180699         7.305182895         0.002557974
    212000       106000.000000         0.191693596       288.247513010        -4.107415753         7.305027112         0.002527270
    214000       107000.000000         0.203376939       305.815625727        -4.105612687         7.306484281         0.002545595
    216000       108000.000000         0.220400661       331.414005334        -4.090664689         7.307757957         0.003965627
    218000       109000.000000         0.194874864       293.031150516        -4.119558694         7.307230255         0.002454132
    220000       110000.000000         0.204845166       308.023382431        -4.076346240         7.343521562         0.002494425
    222000       111000.000000         0.178938653       269.068048665        -4.092370639         7.361671850         0.002500974
    224000       112000.000000         0.223183697       335.598825009        -4.074042562         7.361916320         0.002549220
    226000       113000.000000         0.179620726       270.093674105        -4.093571062         7.364013663         0.002421401
    228000       114000.000000         0.205275073       308.669827846        -4.128044085         7.363652473         0.002503462
    230000       115000.000000         0.196954338       296.158031860        -4.112765254         7.364207217         0.002541710
    232000       116000.000000         0.193576452       291.078743215        -4.082162781         7.364738457         0.002439603
    234000       117000.000000         0.192743300       289.825940738        -4.100342474         7.363556663         0.002554692
    236000       118000.000000         0.223020320       335.353157060        -4.092921622         7.363706728         0.002426598
    238000       119000.000000         0.174771904       262.802554643        -4.089343891         7.368074115         0.004506286
    240000       120000.000000         0.205165609       308.505228547        -4.091913805         7.378733392         0.002577048
    242000       121000.000000         0.219357194       329.844955437        -4.114455860         7.384302521         0.002741680
    244000       122000.000000         0.210047682       315.846347042        -4.113230923         7.388348004         0.002553951
    246000       123000.000000         0.197864052       297.525959405        -4.082403800         7.399233130         0.002986800
    244000       122000.000000         0.201436307       302.897517960        -4.124773935         7.388294515         0.002902901
    248000       124000.000000         0.202633931       304.698372700        -4.098541167         7.416757105         0.002493840
    246000       123000.000000         0.197980250       297.700685107        -4.072810144         7.403262871         0.009482531
    250000       125000.000000         0.195491781       293.958800943        -4.102205971         7.423400791         0.002794825
    248000       124000.000000         0.217379784       326.871547049        -4.083229479         7.412546448         0.003008723
    252000       126000.000000         0.202889900       305.083270880        -4.130309945         7.432392764         0.002583500
    250000       125000.000000         0.187016287       281.214296225        -4.103675112         7.420014381         0.019256419
    252000       126000.000000         0.154749506       232.695099307        -4.123403990         7.422623762         0.002946134
    254000       127000.000000         0.184969454       278.136495785        -4.088514113         7.426615882         0.003013797
    256000       128000.000000         0.204929671       308.150451500        -4.078255531         7.431786434         0.002874248
    258000       129000.000000         0.203939977       306.662259718        -4.120227808         7.431402213         0.003050000
    260000       130000.000000         0.204123413       306.938090518        -4.109698530         7.432404416         0.003122208
    262000       131000.000000         0.190907324       287.065205380        -4.111680409         7.433430586         0.003010940
    264000       132000.000001         0.206192080       310.048720765        -4.128467433         7.433124422         0.003113903
    266000       133000.000001         0.190377179       286.268032072        -4.085399625         7.436180677         0.003125185
    268000       134000.000001         0.199391737       299.823121985        -4.093404719         7.441432049         0.003102028
    270000       135000.000001         0.211761538       318.423452374        -4.121151212         7.435323747         0.003037002
    272000       136000.000001         0.209408822       314.885700533        -4.116564277         7.438326220         0.003063487
    274000       137000.000001         0.202920931       305.129931603        -4.133855866         7.439170754         0.004746274
    276000       138000.000001         0.204733926       307.856111665        -4.089625124         7.438432672         0.003155328
    278000       139000.000001         0.190624199       286.639473389        -4.110350394         7.439063735         0.003100754
    280000       140000.000001         0.197628926       297.172402225        -4.107155539         7.437028165         0.003103310
    282000       141000.000001         0.185909721       279.550364447        -4.134629299         7.440185867         0.003044700
    284000       142000.000001         0.192214864       289.031337896        -4.099576498         7.440299912         0.003093303
    286000       143000.000001         0.193145247       290.430344118        -4.128640881         7.440829697         0.003028021
    288000       144000.000001         0.196176388       294.988236725        -4.110141782         7.441440108         0.003349539
    290000       145000.000001         0.176324536       265.137229225        -4.099338457         7.440426102         0.003155954
    292000       146000.000001         0.186788830       280.872271288        -4.118252018         7.441914593         0.004916556
    294000       147000.000001         0.191619744       288.136463139        -4.141064360         7.440441659         0.003227763
    296000       148000.000001         0.182670390       274.679419618        -4.108520863         7.440198836         0.003509537
    298000       149000.000001         0.175307234       263.607523581        -4.123435296         7.439658073         0.003143994
    300000       150000.000001         0.197432831       296.877537262        -4.104111589         7.440610358         0.003600637
    302000       151000.000001         0.206438192       310.418796787        -4.122030585         7.439901957         0.003111018
    304000       152000.000001         0.194239877       292.076327636        -4.093181588         7.440226394         0.003272312
    306000       153000.000001         0.206443191       310.426314707        -4.155796135         7.440469426         0.003191236
    308000       154000.000001         0.167903703       252.474918182        -4.133151326         7.440900673         0.003189030
    310000       155000.000001         0.217686081       327.332122420        -4.097884334         7.440223298         0.003272737
    312000       156000.000001         0.208458796       313.457156096        -4.097651335         7.440453374         0.003142046
    314000       157000.000001         0.226653812       340.816797876        -4.103422458         7.440295423         0.003065200
    316000       158000.000001         0.173532217       260.938450528        -4.135712346         7.441645795         0.003087825
    318000       159000.000001         0.179302580       269.615280852        -4.122676774         7.454407365         0.003193493
    320000       160000.000001         0.183426596       275.816518512        -4.079525901         7.489464403         0.003030036
    320000       160000.000001         0.186464951       280.385258311        -4.088235083         7.472573603         0.002574708
    322000       161000.000001         0.186292444       280.125861696        -4.097135589         7.489744275         0.003159266
    322000       161000.000001         0.206631590       310.709607073        -4.117951986         7.474883788         0.002843667
    324000       162000.000001         0.207716975       312.341688925        -4.105237568         7.499645158         0.002577342
    326000       163000.000001         0.204031067       306.799230743        -4.133414064         7.501702216         0.003014002
    328000       164000.000001         0.195593139       294.111212691        -4.138648786         7.508017591         0.002564210
    330000       165000.000001         0.188447986       283.367125514        -4.156682077         7.517168280         0.002778199
    332000       166000.000001         0.211075270       317.391518791        -4.118869110         7.543179765         0.002685931
    334000       167000.000001         0.229938725       345.756285239        -4.124977810         7.545033120         0.002752617
    336000       168000.000001         0.206363431       310.306379249        -4.128153952         7.553343686         0.002623420
    338000       169000.000001         0.200450874       301.415733561        -4.124166301         7.557274858         0.002679564
    340000       170000.000001         0.183223458       275.511060984        -4.156206481         7.556689143         0.002710015
    342000       171000.000001         0.202737666       304.854356888        -4.125038765         7.554120858         0.002727535
    344000       172000.000001         0.203353329       305.780123543        -4.150375035         7.579439083         0.002747137
    346000       173000.000001         0.173425145       260.777447960        -4.103301235         7.587593179         0.002681393
    348000       174000.000001         0.206816881       310.988227214        -4.127076661         7.587537747         0.002618644
    350000       175000.000001         0.201564013       303.089548603        -4.105909668         7.596442705         0.002591576
    348000       174000.000001         0.203732040       306.349585993        -4.106795991         7.584684067         0.003183253
    352000       176000.000001         0.200688104       301.772454622        -4.115564805         7.596053028         0.002608430
    350000       175000.000001         0.185848305       279.458014803        -4.148147510         7.584051639         0.013244089
    354000       177000.000001         0.187370613       281.747092183        -4.124246799         7.595818609         0.002657562
    352000       176000.000001         0.193955061       291.648052892        -4.113165115         7.587400919         0.003298769
    354000       177000.000001         0.211487991       318.012123432        -4.117880184         7.614545094         0.012380911
    356000       178000.000001         0.216284488       325.224562708        -4.117116498         7.615413042         0.002987098
    358000       179000.000001         0.205636513       309.213321287        -4.078774561         7.623536352         0.003131650
    360000       180000.000002         0.211912435       318.650355088        -4.088189047         7.675538285         0.003109977
    362000       181000.000002         0.216801130       326.001430844        -4.103677290         7.678680943         0.003062313
    364000       182000.000002         0.201038105       302.298747314        -4.102494809         7.677929801         0.003083445
    366000       183000.000002         0.215811137       324.512790253        -4.088262393         7.680845094         0.003380559
    368000       184000.000002         0.197915701       297.603623178        -4.107177723         7.682108984         0.003232846
    370000       185000.000002         0.206144363       309.976969181        -4.107656318         7.683984019         0.003431732
    372000       186000.000002         0.189499126       284.947713355        -4.118104798         7.697819986         0.003250569
    374000       187000.000002         0.194344963       292.234344329        -4.125254035         7.702033656         0.003224988
    376000       188000.000002         0.192602803       289.614677020        -4.099677315         7.706663387         0.003322635
    378000       189000.000002         0.192586922       289.590797483        -4.118014623         7.713550269         0.003356908
    380000       190000.000002         0.207870476       312.572507115        -4.125851979         7.712967486         0.003147950
    382000       191000.000002         0.179507509       269.923430213        -4.146186520         7.713917257         0.007655513
    384000       192000.000002         0.226227866       340.176308251        -4.148329225         7.717263549         0.003120039
    386000       193000.000002         0.179817912       270.390180171        -4.168307615         7.724498862         0.003391506
    388000       194000.000002         0.198539283       298.541296459        -4.164301284         7.724969902         0.003260544
    390000       195000.000002         0.215312380       323.762814629        -4.089679662         7.726398126         0.003209429
    392000       196000.000002         0.208776619       313.935063894        -4.116794096         7.726331374         0.003482495
    394000       197000.000002         0.194558003       292.554690470        -4.108990959         7.726622490         0.003093366
    394000       197000.000002         0.215681424       324.317741058        -4.150935262         7.726317626         0.002573580
    396000       198000.000002         0.222773162       334.981508478        -4.172314604         7.728413750         0.003704460
    396000       198000.000002         0.211299699       317.728990659        -4.145990751         7.737017127         0.003017042
    398000       199000.000002         0.203804343       306.458308435        -4.159857146         7.739668322         0.002670366
    400000       200000.000002         0.204794963       307.947892061        -4.136795036         7.754203765         0.008020807
    402000       201000.000002         0.177451567       266.831933026        -4.121075443         7.768540696         0.002616148
    404000       202000.000002         0.199339750       299.744949066        -4.122577070         7.768161660         0.002635196
    406000       203000.000002         0.197757250       297.365361755        -4.098288399         7.769154351         0.002670098
    408000       204000.000002         0.185889999       279.520709756        -4.125589150         7.793655845         0.002613343
    410000       205000.000002         0.212050830       318.858457950        -4.122663785         7.790585499         0.006384868
    412000       206000.000002         0.190356833       286.237438021        -4.144645122         7.790081206         0.002877362
    414000       207000.000002         0.204980037       308.226186188        -4.140382671         7.792040722         0.002590820
    416000       208000.000002         0.205046801       308.326578337        -4.148887849         7.802274952         0.002610881
    418000       209000.000002         0.235231619       353.715151474        -4.171945462         7.800838355         0.002781443