0
-11.764
-10.812
-18.123
-6.763
-10.464
-9.258
-28.887
-4.902
-2.119
-20.108
-10.339
-5.221
-8.325
-1.42
5.025
-14.862
-15.132
4.275
-8.388
-19.661
3.331
-7.538
-5.713
-37.187
-17.491
-2.243
-14.389
-20.818
-3.285
1.259
-21.378
-30.363
-4.037
-8.904
-36.355
-22.666
-31.307
-42.811
-33.52
-12.326
-11.033
7.639
-18.183
-18.389
-12.542
-22.476
-2.217
-25.911
-15.994
-22.294
-31.435
-29.094
-29.113
-26.107
-34.585
-54.267
-38.502
-23.875
-30.591
-11.802
4.267
19.047
8.432
6.637
-29.435
-16.116
-15.803
-15.136
-22.417
-1.914
-14.561
-6.125
-20.152
0.655
7.57
13.643
-5.261
-27.784
12.86
