ITEM: TIMESTEP
0
ITEM: NUMBER OF ATOMS
141
ITEM: BOX BOUNDS pp pp pp
0 11.329838
0 11.329838
0 11.329838
ITEM: ATOMS id type x y z
1 1 -0.1380000000 0.4050000000 16.8920000000
2 1 -14.5600000000 10.3030000000 0.3840000000
3 1 -6.5750000000 -3.4510000000 5.1480000000
4 2 9.7860000000 2.3660000000 14.4130000000
5 2 1.1240000000 -9.6350000000 13.0100000000
6 2 11.8480000000 10.1510000000 1.7050000000
7 2 3.8380000000 11.1530000000 1.5520000000
8 2 1.7390000000 -0.1390000000 -0.9650000000
9 2 -10.2480000000 5.3180000000 -5.6040000000
10 2 2.5450000000 2.7220000000 -4.1760000000
11 2 0.8630000000 6.5430000000 -2.8080000000
12 2 -1.9650000000 31.3880000000 26.1140000000
13 2 12.3750000000 8.1460000000 6.0160000000
14 2 4.3230000000 7.8930000000 -0.1240000000
15 2 -7.4400000000 -0.1110000000 7.1890000000
16 2 20.5690000000 -5.6760000000 -2.3770000000
17 2 -5.9180000000 4.5370000000 5.7010000000
18 2 -4.2860000000 -0.8100000000 7.9970000000
19 2 19.8260000000 15.0410000000 11.8930000000
20 2 -7.6290000000 -20.2020000000 22.9950000000
21 2 -7.9560000000 11.3870000000 15.5570000000
22 2 16.5770000000 -7.7340000000 -14.1490000000
23 2 8.1340000000 -8.6190000000 7.4920000000
24 2 11.4050000000 -2.2160000000 -13.4250000000
25 2 -8.8040000000 7.9370000000 13.4350000000
26 2 -15.7590000000 19.1470000000 -13.2940000000
27 2 -11.8730000000 14.8400000000 18.6760000000
28 2 18.3080000000 -11.7440000000 15.2260000000
29 2 10.4460000000 5.0600000000 -8.1580000000
30 2 -11.4190000000 2.7570000000 10.7780000000
31 2 13.8790000000 -8.0690000000 15.3120000000
32 2 27.6820000000 1.0840000000 -13.0100000000
33 2 -15.5700000000 2.6630000000 15.4710000000
34 2 -13.8160000000 -4.8050000000 -10.1940000000
35 2 5.7660000000 -19.1930000000 24.4210000000
36 2 13.6340000000 4.7410000000 -12.1390000000
37 2 1.6870000000 -6.3480000000 1.8310000000
38 2 -13.3090000000 -3.2810000000 7.1280000000
39 2 -7.0000000000 -4.9170000000 -2.7700000000
40 2 5.4050000000 -5.2390000000 13.2820000000
41 2 -1.7740000000 0.0610000000 17.4000000000
42 2 0.7670000000 0.2460000000 18.3630000000
43 2 0.2490000000 2.1060000000 16.4380000000
44 2 0.4970000000 -0.8010000000 15.7330000000
45 2 -16.1600000000 9.5470000000 0.6250000000
46 2 -15.0100000000 11.6340000000 -0.7330000000
47 2 -13.5930000000 8.9320000000 -0.3740000000
48 2 -13.5350000000 10.8610000000 1.6890000000
49 2 -7.4010000000 -4.7920000000 4.4760000000
50 2 -6.4470000000 -2.2080000000 3.8410000000
51 2 -7.4170000000 -3.1810000000 6.7240000000
52 2 -4.8460000000 -3.9030000000 5.3160000000
53 3 10.6350000000 2.3080000000 14.9670000000
54 3 9.0320000000 2.4050000000 14.9980000000
55 3 1.0770000000 -10.5860000000 13.0250000000
56 3 2.0590000000 -9.5540000000 12.9480000000
57 3 12.3350000000 9.3160000000 1.7660000000
58 3 10.9440000000 9.9160000000 1.4310000000
59 3 3.1380000000 10.5400000000 1.1910000000
60 3 3.5890000000 11.2750000000 2.4750000000
61 3 1.1990000000 -0.3010000000 -0.2100000000
62 3 1.3440000000 -0.7950000000 -1.6230000000
63 3 -9.5080000000 4.7440000000 -5.7900000000
64 3 -9.9400000000 6.2090000000 -5.8500000000
65 3 3.4780000000 3.1010000000 -4.1530000000
66 3 2.4100000000 2.4830000000 -5.1180000000
67 3 1.0780000000 6.1470000000 -3.6580000000
68 3 1.1770000000 5.8270000000 -2.1800000000
69 3 -1.2450000000 30.7910000000 26.0080000000
70 3 -1.9110000000 32.2560000000 25.5990000000
71 3 12.4760000000 8.9900000000 5.5540000000
72 3 13.2850000000 8.0350000000 6.4060000000
73 3 5.1740000000 8.3820000000 -0.2760000000
74 3 4.0980000000 7.3810000000 -0.9720000000
75 3 -7.3350000000 0.2590000000 6.2480000000
76 3 -8.4380000000 -0.1280000000 7.0840000000
77 3 19.7880000000 -5.0570000000 -2.3720000000
78 3 21.3160000000 -5.2480000000 -2.8440000000
79 3 -5.7990000000 4.3930000000 6.6490000000
80 3 -6.6130000000 5.1340000000 5.4530000000
81 3 -3.8610000000 -0.6430000000 8.8390000000
82 3 -4.9430000000 -0.1090000000 8.0540000000
83 3 19.9750000000 14.3430000000 11.2500000000
84 3 20.5770000000 14.8500000000 12.4500000000
85 3 -8.1300000000 -19.7000000000 22.3640000000
86 3 -7.4070000000 -21.1200000000 22.7670000000
87 3 -7.3910000000 10.5540000000 15.5820000000
88 3 -8.9210000000 11.0000000000 15.6640000000
89 3 16.5250000000 -8.3290000000 -13.3680000000
90 3 16.3300000000 -6.8280000000 -13.8080000000
91 3 7.3260000000 -8.2370000000 7.8920000000
92 3 7.8470000000 -9.0560000000 6.6730000000
93 3 10.5940000000 -2.4670000000 -12.9410000000
94 3 11.9170000000 -2.9650000000 -13.8000000000
95 3 -9.0430000000 7.0010000000 13.5980000000
96 3 -8.1350000000 7.9150000000 12.7210000000
97 3 -15.8510000000 19.8980000000 -13.9530000000
98 3 -15.3630000000 19.5270000000 -12.4800000000
99 3 -11.4870000000 15.6870000000 18.4340000000
100 3 -12.8040000000 15.0940000000 18.9810000000
101 3 18.2440000000 -10.7780000000 15.3090000000
102 3 17.3730000000 -12.0130000000 15.2090000000
103 3 10.1320000000 4.1260000000 -8.1840000000
104 3 10.6430000000 5.1200000000 -7.1900000000
105 3 -10.9570000000 2.3570000000 11.5810000000
106 3 -11.1750000000 3.7020000000 10.7060000000
107 3 13.0520000000 -8.5690000000 15.4960000000
108 3 14.4780000000 -8.7750000000 15.3690000000
109 3 28.4080000000 0.5830000000 -12.5540000000
110 3 27.1010000000 0.5420000000 -13.5720000000
111 3 -16.0040000000 3.0620000000 14.7200000000
112 3 -15.8170000000 3.2360000000 16.2120000000
113 3 -13.3220000000 -5.1820000000 -9.4090000000
114 3 -13.6220000000 -5.4360000000 -10.8850000000
115 3 6.5430000000 -19.1310000000 23.8490000000
116 3 5.0430000000 -19.6630000000 23.9370000000
117 3 13.5530000000 4.9600000000 -11.1720000000
118 3 14.3080000000 5.1920000000 -12.6060000000
119 3 2.0280000000 -6.9690000000 2.5030000000
120 3 0.7260000000 -6.2420000000 2.1060000000
121 3 -13.4660000000 -3.1070000000 8.0550000000
122 3 -12.3790000000 -2.9720000000 7.0850000000
123 3 -6.1160000000 -4.6350000000 -2.5300000000
124 3 -7.3000000000 -4.2720000000 -3.4640000000
125 3 5.4580000000 -6.1910000000 13.1930000000
126 3 5.2250000000 -4.8680000000 12.3820000000
127 3 -2.2490000000 0.2960000000 18.2080000000
128 3 0.5670000000 -0.5150000000 18.9430000000
129 3 -0.1590000000 2.7020000000 17.0530000000
130 3 0.2620000000 -0.7890000000 14.8000000000
131 3 -16.9170000000 9.9780000000 1.0370000000
132 3 -14.3250000000 12.2360000000 -1.1260000000
133 3 -13.6660000000 8.1770000000 0.2600000000
134 3 -13.4870000000 11.8330000000 1.9300000000
135 3 -7.0090000000 -5.1990000000 3.6860000000
136 3 -7.0910000000 -2.5200000000 3.2230000000
137 3 -7.2240000000 -2.3000000000 7.1350000000
138 3 -4.5640000000 -4.7740000000 5.6890000000
139 4 -4.2650000000 7.8500000000 2.6420000000
140 4 -3.1870000000 9.3260000000 5.6050000000
141 4 0.9160000000 2.0440000000 -2.6320000000
ITEM: TIMESTEP
1
ITEM: NUMBER OF ATOMS
141
ITEM: BOX BOUNDS pp pp pp
0 11.348002
0 11.348002
0 11.348002
ITEM: ATOMS id type x y z
1 1 -0.0550000000 -0.0370000000 17.1390000000
2 1 -14.6160000000 9.8780000000 0.0310000000
3 1 -6.6310000000 -3.9530000000 5.2540000000
4 2 8.9030000000 1.8250000000 14.6190000000
5 2 1.5110000000 -9.5020000000 12.6560000000
6 2 11.8930000000 10.5900000000 1.3490000000
7 2 4.5290000000 11.1260000000 0.8230000000
8 2 2.1000000000 -0.0530000000 -0.9370000000
9 2 -10.4300000000 4.7390000000 -6.8580000000
10 2 3.1350000000 3.0750000000 -3.8110000000
11 2 0.0390000000 6.2430000000 -2.4200000000
12 2 -2.7120000000 32.0990000000 26.3590000000
13 2 12.3230000000 7.2370000000 5.7860000000
14 2 4.1590000000 7.9250000000 0.0390000000
15 2 -7.6980000000 -0.6140000000 7.3890000000
16 2 20.1410000000 -6.4110000000 -0.8160000000
17 2 -5.8450000000 3.5380000000 5.5990000000
18 2 -4.8250000000 -1.8400000000 8.1730000000
19 2 19.6090000000 13.4390000000 10.4140000000
20 2 -7.5350000000 -20.1630000000 22.4180000000
21 2 -8.6810000000 11.3850000000 14.6990000000
22 2 17.6870000000 -7.5110000000 -13.8100000000
23 2 8.5140000000 -8.3330000000 7.1810000000
24 2 11.8320000000 -2.2840000000 -13.4760000000
25 2 -9.5390000000 7.9720000000 13.2490000000
26 2 -15.3290000000 18.4680000000 -13.3890000000
27 2 -11.4880000000 14.7980000000 18.3730000000
28 2 16.6870000000 -11.7160000000 16.5770000000
29 2 10.3830000000 4.2370000000 -8.8540000000
30 2 -11.7010000000 2.6290000000 10.5930000000
31 2 14.4270000000 -8.1410000000 14.4760000000
32 2 28.2870000000 0.8730000000 -13.7980000000
33 2 -16.8290000000 2.1850000000 14.8070000000
34 2 -14.1440000000 -4.8690000000 -9.8390000000
35 2 5.7580000000 -18.9150000000 23.6760000000
36 2 13.5600000000 4.8810000000 -12.6870000000
37 2 1.7870000000 -6.1330000000 1.4700000000
38 2 -13.3380000000 -3.3770000000 7.0490000000
39 2 -6.9760000000 -5.2250000000 -2.6120000000
40 2 4.8510000000 -5.2600000000 13.2960000000
41 2 -1.8740000000 0.1300000000 17.3970000000
42 2 0.8270000000 -0.0180000000 18.6280000000
43 2 0.5150000000 1.1730000000 15.8940000000
44 2 -0.0960000000 -1.5950000000 16.3210000000
45 2 -16.0840000000 9.1040000000 0.7130000000
46 2 -15.0800000000 10.9090000000 -1.3260000000
47 2 -13.4200000000 8.5830000000 -0.4660000000
48 2 -13.5980000000 10.7340000000 1.3110000000
49 2 -7.2220000000 -5.5340000000 4.7820000000
50 2 -6.6710000000 -2.7650000000 3.9370000000
51 2 -7.7140000000 -3.5580000000 6.6090000000
52 2 -4.8880000000 -3.8920000000 5.6700000000
53 3 9.4810000000 1.3390000000 15.2220000000
54 3 8.0050000000 1.6390000000 14.8880000000
55 3 1.4160000000 -10.4150000000 12.9380000000
56 3 2.3920000000 -9.5410000000 12.2050000000
57 3 12.0500000000 9.6070000000 1.4300000000
58 3 10.9250000000 10.7570000000 1.3720000000
59 3 3.7980000000 11.0320000000 0.2160000000
60 3 4.1610000000 11.6050000000 1.5760000000
61 3 1.4040000000 -0.1090000000 -0.2320000000
62 3 1.8270000000 -0.8570000000 -1.4350000000
63 3 -9.4490000000 4.6420000000 -6.9730000000
64 3 -10.6060000000 5.6370000000 -6.5060000000
65 3 3.9730000000 2.7860000000 -4.2340000000
66 3 2.8110000000 3.7230000000 -4.4160000000
67 3 0.1020000000 6.1480000000 -3.3600000000
68 3 0.7660000000 5.7170000000 -1.9540000000
69 3 -1.8270000000 32.1240000000 26.7510000000
70 3 -2.4970000000 32.5910000000 25.5580000000
71 3 11.9040000000 8.0140000000 5.3190000000
72 3 13.2900000000 7.3240000000 5.7060000000
73 3 5.0640000000 8.3320000000 0.2190000000
74 3 3.9930000000 8.0000000000 -0.9000000000
75 3 -7.0080000000 -0.7050000000 6.6260000000
76 3 -8.6660000000 -0.6150000000 7.0600000000
77 3 19.4180000000 -5.9730000000 -1.3640000000
78 3 20.9200000000 -6.0760000000 -1.3090000000
79 3 -5.2710000000 3.8020000000 6.3410000000
80 3 -6.3650000000 4.4120000000 5.4170000000
81 3 -4.4950000000 -1.2230000000 8.8830000000
82 3 -5.7760000000 -1.6850000000 8.1110000000
83 3 19.7830000000 14.4260000000 10.3790000000
84 3 20.5560000000 13.2020000000 10.5870000000
85 3 -8.0870000000 -19.5300000000 21.8770000000
86 3 -7.1800000000 -20.8390000000 21.8150000000
87 3 -9.1630000000 10.5150000000 14.5140000000
88 3 -9.4590000000 11.8010000000 15.1710000000
89 3 17.4360000000 -8.4840000000 -13.6420000000
90 3 16.8430000000 -7.1690000000 -14.1930000000
91 3 7.6830000000 -8.1160000000 7.7040000000
92 3 8.1700000000 -8.5340000000 6.2980000000
93 3 11.0380000000 -2.3130000000 -12.8520000000
94 3 11.9020000000 -3.2660000000 -13.4170000000
95 3 -9.4210000000 7.0030000000 13.3630000000
96 3 -8.8560000000 8.1710000000 12.5780000000
97 3 -15.7150000000 19.2720000000 -13.8310000000
98 3 -14.5800000000 18.9240000000 -12.9470000000
99 3 -11.2690000000 15.2400000000 17.5540000000
100 3 -12.4390000000 14.6420000000 18.3450000000
101 3 16.8440000000 -10.8130000000 16.2210000000
102 3 16.4090000000 -12.3280000000 15.8750000000
103 3 9.9400000000 3.3580000000 -8.6820000000
104 3 11.0430000000 4.3960000000 -8.1300000000
105 3 -11.1510000000 2.4160000000 11.4160000000
106 3 -11.9450000000 3.5600000000 10.7970000000
107 3 13.8440000000 -8.8600000000 14.1340000000
108 3 15.2710000000 -8.5730000000 14.7020000000
109 3 28.5850000000 0.3260000000 -13.0610000000
110 3 27.4850000000 0.5090000000 -14.3020000000
111 3 -16.5710000000 2.5790000000 13.9020000000
112 3 -16.8660000000 2.8470000000 15.5360000000
113 3 -13.3300000000 -5.2620000000 -9.4030000000
114 3 -14.3510000000 -5.5160000000 -10.5230000000
115 3 6.4880000000 -19.0370000000 23.0390000000
116 3 4.9720000000 -19.3300000000 23.2200000000
117 3 13.5020000000 5.1090000000 -11.7160000000
118 3 14.4110000000 5.3000000000 -13.0300000000
119 3 2.4430000000 -6.6720000000 1.9740000000
120 3 0.9250000000 -6.5340000000 1.4950000000
121 3 -13.3190000000 -3.5050000000 8.0160000000
122 3 -12.4420000000 -3.0260000000 6.8500000000
123 3 -6.2840000000 -4.6430000000 -2.3390000000
124 3 -7.4050000000 -4.7000000000 -3.3920000000
125 3 5.2030000000 -6.1350000000 12.9660000000
126 3 4.5600000000 -4.7240000000 12.5400000000
127 3 -1.9850000000 0.7790000000 18.1220000000
128 3 0.6540000000 -0.8370000000 19.1790000000
129 3 0.5900000000 2.1490000000 15.7640000000
130 3 0.1240000000 -1.6110000000 15.3580000000
131 3 -16.7800000000 9.7740000000 0.9630000000
132 3 -14.7500000000 11.8400000000 -1.3200000000
133 3 -13.3970000000 7.8390000000 0.2160000000
134 3 -13.7210000000 11.7100000000 1.5820000000
135 3 -7.1860000000 -5.6690000000 3.7870000000
136 3 -7.3990000000 -2.7830000000 3.2920000000
137 3 -7.8040000000 -2.6050000000 6.8690000000
138 3 -4.4380000000 -4.4940000000 6.2390000000
139 4 -4.4250000000 7.5420000000 2.9290000000
140 4 -3.7590000000 9.5670000000 5.9280000000
141 4 0.9900000000 1.9480000000 -2.6780000000
ITEM: TIMESTEP
2
ITEM: NUMBER OF ATOMS
141
ITEM: BOX BOUNDS pp pp pp
0 11.381154
0 11.381154
0 11.381154
ITEM: ATOMS id type x y z
1 1 -0.2420000000 -0.6700000000 17.4130000000
2 1 -14.5970000000 9.7230000000 -0.4840000000
3 1 -6.3030000000 -4.4700000000 5.1100000000
4 2 9.7140000000 1.6660000000 14.3660000000
5 2 1.3760000000 -10.0910000000 13.3790000000
6 2 11.6620000000 9.8760000000 2.1340000000
7 2 4.4830000000 10.7580000000 1.5360000000
8 2 1.8210000000 -0.5320000000 -1.0930000000
9 2 -11.3620000000 4.8430000000 -6.0500000000
10 2 2.6430000000 2.9830000000 -3.2260000000
11 2 0.1860000000 4.2310000000 -1.9040000000
12 2 -2.4430000000 31.8050000000 25.9540000000
13 2 12.4920000000 7.2690000000 6.4800000000
14 2 4.5130000000 7.6610000000 -0.2250000000
15 2 -7.6900000000 -1.1980000000 7.2220000000
16 2 20.0220000000 -6.6590000000 -2.0060000000
17 2 -7.0150000000 3.0400000000 5.8290000000
18 2 -4.8570000000 -1.9690000000 7.4400000000
19 2 19.5580000000 13.5450000000 10.7240000000
20 2 -7.8850000000 -20.6760000000 22.8110000000
21 2 -8.1680000000 11.1520000000 15.8020000000
22 2 17.2320000000 -8.3860000000 -14.4450000000
23 2 8.5280000000 -9.4030000000 6.7410000000
24 2 11.6900000000 -2.9740000000 -13.5740000000
25 2 -9.1670000000 7.8350000000 13.5080000000
26 2 -15.8280000000 18.3360000000 -14.0870000000
27 2 -11.6910000000 14.2010000000 18.4280000000
28 2 17.8710000000 -12.1910000000 16.2620000000
29 2 10.3860000000 4.7520000000 -9.0870000000
30 2 -11.4870000000 1.8430000000 10.9820000000
31 2 13.2780000000 -8.1120000000 15.4520000000
32 2 27.2380000000 0.6050000000 -13.4780000000
33 2 -16.4690000000 1.8670000000 14.8640000000
34 2 -14.3670000000 -5.2190000000 -10.4730000000
35 2 6.1260000000 -19.7490000000 23.8210000000
36 2 13.9290000000 4.8860000000 -12.0100000000
37 2 1.6270000000 -6.5250000000 1.8670000000
38 2 -13.2580000000 -4.3780000000 7.1320000000
39 2 -6.8090000000 -5.7880000000 -2.6670000000
40 2 5.1710000000 -5.7370000000 13.1440000000
41 2 -1.8730000000 -0.5820000000 18.2340000000
42 2 0.9530000000 -0.8700000000 18.7410000000
43 2 0.1440000000 0.6150000000 16.3010000000
44 2 -0.2810000000 -2.1310000000 16.3810000000
45 2 -16.0810000000 9.1990000000 0.4640000000
46 2 -15.3080000000 10.7740000000 -1.7690000000
47 2 -13.8570000000 8.2440000000 -1.1970000000
48 2 -13.3300000000 10.4520000000 0.5190000000
49 2 -6.9640000000 -6.0060000000 4.6640000000
50 2 -6.5520000000 -3.1810000000 3.9500000000
51 2 -7.3600000000 -4.1690000000 6.5670000000
52 2 -4.5910000000 -4.2500000000 5.0930000000
53 3 10.2980000000 1.2440000000 15.0790000000
54 3 8.7840000000 1.5540000000 14.5970000000
55 3 1.0270000000 -11.0060000000 13.4270000000
56 3 2.2760000000 -10.1710000000 12.8970000000
57 3 12.1320000000 9.0860000000 1.7190000000
58 3 10.8500000000 9.9280000000 1.5060000000
59 3 3.9190000000 10.2220000000 0.9560000000
60 3 4.1950000000 11.6860000000 1.5300000000
61 3 1.1920000000 0.0960000000 -0.6930000000
62 3 1.3200000000 -1.3530000000 -1.0910000000
63 3 -10.6510000000 4.2950000000 -6.4500000000
64 3 -10.8080000000 5.6140000000 -5.7280000000
65 3 3.0910000000 3.0260000000 -4.0690000000
66 3 2.8820000000 3.8040000000 -2.6990000000
67 3 0.3670000000 4.1380000000 -2.8860000000
68 3 0.8240000000 4.8310000000 -1.5140000000
69 3 -1.4620000000 31.8630000000 25.9890000000
70 3 -2.5970000000 32.4340000000 25.2540000000
71 3 12.1210000000 8.0820000000 6.0580000000
72 3 13.4780000000 7.2290000000 6.4700000000
73 3 5.3410000000 8.2100000000 -0.0550000000
74 3 4.7020000000 7.2970000000 -1.1250000000
75 3 -7.6080000000 -0.7350000000 6.3320000000
76 3 -8.6400000000 -1.3110000000 7.3300000000
77 3 19.4800000000 -6.3850000000 -2.7660000000
78 3 20.9380000000 -6.5640000000 -2.2940000000
79 3 -6.1510000000 3.0050000000 6.3080000000
80 3 -7.0220000000 4.0690000000 5.5020000000
81 3 -4.8050000000 -1.3740000000 8.2240000000
82 3 -5.6060000000 -1.6230000000 6.8620000000
83 3 19.7070000000 14.2230000000 10.0220000000
84 3 20.4250000000 13.2240000000 10.8950000000
85 3 -8.4400000000 -19.8690000000 22.6020000000
86 3 -7.6750000000 -21.2330000000 22.0080000000
87 3 -8.0190000000 10.7260000000 14.9020000000
88 3 -9.1200000000 11.2830000000 15.9220000000
89 3 16.5460000000 -9.1130000000 -14.2410000000
90 3 16.7490000000 -7.5500000000 -14.5130000000
91 3 7.7050000000 -9.0960000000 7.1480000000
92 3 8.6260000000 -10.3120000000 6.7510000000
93 3 10.6990000000 -3.0120000000 -13.4800000000
94 3 11.8200000000 -3.6110000000 -14.3310000000
95 3 -9.4020000000 6.8840000000 13.6300000000
96 3 -8.5290000000 7.8560000000 12.7810000000
97 3 -16.1020000000 19.1910000000 -14.4820000000
98 3 -15.2850000000 18.5920000000 -13.3350000000
99 3 -11.5430000000 15.0140000000 17.8440000000
100 3 -12.6260000000 14.0660000000 18.2360000000
101 3 17.8220000000 -11.2500000000 16.1080000000
102 3 17.4200000000 -12.6660000000 15.5120000000
103 3 10.1670000000 3.7750000000 -8.9210000000
104 3 10.4460000000 5.0520000000 -8.1870000000
105 3 -11.0790000000 2.0180000000 11.8580000000
106 3 -11.4810000000 2.6210000000 10.3830000000
107 3 12.9020000000 -8.9640000000 15.0470000000
108 3 14.1350000000 -8.4300000000 15.7690000000
109 3 28.0650000000 0.2260000000 -13.0530000000
110 3 26.9840000000 0.0190000000 -14.2370000000
111 3 -16.5870000000 2.4700000000 14.1220000000
112 3 -17.2490000000 2.0950000000 15.4340000000
113 3 -13.7160000000 -5.8140000000 -10.0180000000
114 3 -14.5520000000 -5.6930000000 -11.2860000000
115 3 6.9290000000 -20.1390000000 23.4080000000
116 3 5.3550000000 -20.0380000000 23.2860000000
117 3 13.6160000000 5.1260000000 -11.0880000000
118 3 14.6950000000 5.3870000000 -12.3830000000
119 3 1.8920000000 -7.0750000000 2.6670000000
120 3 0.6450000000 -6.4820000000 1.8240000000
121 3 -13.5310000000 -4.3360000000 8.0490000000
122 3 -12.3440000000 -4.6660000000 7.0140000000
123 3 -5.8780000000 -5.2860000000 -2.7150000000
124 3 -7.2310000000 -5.3130000000 -3.4370000000
125 3 5.6590000000 -6.4790000000 12.7680000000
126 3 4.9470000000 -5.2420000000 12.3160000000
127 3 -2.1740000000 -0.9650000000 19.0810000000
128 3 0.8210000000 -1.5530000000 19.4170000000
129 3 0.2660000000 1.4670000000 16.8070000000
130 3 0.3360000000 -2.0820000000 15.6360000000
131 3 -16.4730000000 9.9060000000 1.0390000000
132 3 -14.9580000000 11.6200000000 -1.7610000000
133 3 -13.6530000000 7.6510000000 -0.4190000000
134 3 -13.1470000000 11.4170000000 0.5790000000
135 3 -6.5960000000 -6.1750000000 3.7860000000
136 3 -7.4870000000 -3.0880000000 3.7540000000
137 3 -7.4810000000 -3.2390000000 6.7600000000
138 3 -4.0410000000 -4.8720000000 5.4970000000
139 4 -4.4560000000 7.5450000000 2.3100000000
140 4 -3.0920000000 9.1230000000 5.7850000000
141 4 0.9310000000 1.1570000000 -2.9850000000
ITEM: TIMESTEP
3
ITEM: NUMBER OF ATOMS
141
ITEM: BOX BOUNDS pp pp pp
0 11.236968
0 11.236968
0 11.236968
ITEM: ATOMS id type x y z
1 1 -0.0200000000 -0.7460000000 16.7330000000
2 1 -14.2620000000 9.5120000000 -0.4830000000
3 1 -6.6630000000 -4.0160000000 4.4730000000
4 2 9.5680000000 1.2860000000 14.2650000000
5 2 1.4920000000 -9.4440000000 12.2250000000
6 2 11.9550000000 10.2930000000 1.4380000000
7 2 4.7530000000 11.2120000000 0.6400000000
8 2 2.6020000000 -0.4380000000 -1.3400000000
9 2 -10.2590000000 4.5590000000 -6.4910000000
10 2 2.9190000000 2.8720000000 -4.0930000000
11 2 -0.4660000000 4.8900000000 -2.5620000000
12 2 -2.0360000000 30.8970000000 25.4290000000
13 2 12.5120000000 6.9590000000 5.9350000000
14 2 4.8570000000 7.2230000000 -0.7410000000
15 2 -7.5330000000 -0.6840000000 6.5570000000
16 2 19.1010000000 -6.5920000000 -2.1310000000
17 2 -6.3130000000 3.2970000000 4.8330000000
18 2 -4.8630000000 -2.1290000000 7.5130000000
19 2 19.9590000000 13.3190000000 10.8710000000
20 2 -7.6890000000 -20.1030000000 21.5080000000
21 2 -7.6880000000 11.1930000000 14.8550000000
22 2 17.7210000000 -7.9880000000 -15.0030000000
23 2 8.6940000000 -9.4920000000 6.0260000000
24 2 11.8610000000 -2.9450000000 -13.7620000000
25 2 -8.5400000000 8.1830000000 11.7290000000
26 2 -14.4760000000 18.1310000000 -14.6170000000
27 2 -11.2430000000 14.1480000000 17.9280000000
28 2 18.0040000000 -12.2900000000 14.4530000000
29 2 10.5540000000 3.9890000000 -9.1530000000
30 2 -11.0820000000 2.3860000000 9.7750000000
31 2 14.1660000000 -8.2550000000 14.1190000000
32 2 27.5770000000 0.7700000000 -13.6310000000
33 2 -15.8190000000 2.0040000000 14.2380000000
34 2 -13.4260000000 -5.3860000000 -10.4980000000
35 2 5.9880000000 -19.6090000000 22.8210000000
36 2 13.6550000000 4.8010000000 -12.8830000000
37 2 1.1310000000 -5.6030000000 0.6480000000
38 2 -13.1270000000 -4.6010000000 5.2390000000
39 2 -6.2420000000 -5.6100000000 -3.1060000000
40 2 5.8510000000 -5.6980000000 12.8770000000
41 2 -1.7600000000 -1.1490000000 17.2500000000
42 2 1.0030000000 -0.9070000000 18.2200000000
43 2 0.3620000000 0.7960000000 15.9300000000
44 2 0.4260000000 -1.9240000000 15.5690000000
45 2 -15.4970000000 8.6810000000 0.2870000000
46 2 -14.7080000000 10.7270000000 -1.6860000000
47 2 -13.2960000000 8.3300000000 -1.4650000000
48 2 -13.1780000000 10.2980000000 0.6620000000
49 2 -7.3590000000 -5.6180000000 3.9330000000
50 2 -6.9960000000 -2.6690000000 3.3590000000
51 2 -7.4050000000 -3.8720000000 6.1430000000
52 2 -4.8340000000 -3.9780000000 4.5480000000
53 3 10.3590000000 1.0270000000 14.7990000000
54 3 8.8450000000 1.4710000000 14.9190000000
55 3 0.9360000000 -10.2350000000 12.3700000000
56 3 2.2660000000 -9.7420000000 11.6860000000
57 3 12.5890000000 9.6710000000 1.1670000000
58 3 11.1590000000 10.0090000000 0.9490000000
59 3 5.3260000000 12.0020000000 0.5320000000
60 3 4.3460000000 11.2880000000 1.5280000000
61 3 3.2070000000 -0.0650000000 -0.6940000000
62 3 2.5190000000 -1.3350000000 -1.0200000000
63 3 -9.3770000000 4.2190000000 -6.8190000000
64 3 -10.0900000000 5.3790000000 -5.9430000000
65 3 3.4490000000 2.6390000000 -4.8640000000
66 3 2.6020000000 3.7770000000 -4.3650000000
67 3 -0.1380000000 4.3770000000 -3.3610000000
68 3 0.2370000000 5.5050000000 -2.3490000000
69 3 -1.1790000000 30.8290000000 25.9140000000
70 3 -1.8840000000 31.7500000000 24.9790000000
71 3 12.2880000000 7.5400000000 5.1590000000
72 3 13.5060000000 6.9250000000 6.0040000000
73 3 5.6540000000 7.7510000000 -0.4460000000
74 3 4.9890000000 6.9030000000 -1.6520000000
75 3 -7.2890000000 -0.3010000000 5.6330000000
76 3 -8.5200000000 -0.7950000000 6.5570000000
77 3 18.9930000000 -5.7470000000 -2.6770000000
78 3 19.9870000000 -6.8010000000 -2.4500000000
79 3 -5.5410000000 3.4970000000 5.4680000000
80 3 -6.6970000000 4.1650000000 4.5510000000
81 3 -4.5380000000 -1.3750000000 8.0550000000
82 3 -5.8380000000 -1.9780000000 7.4170000000
83 3 20.9280000000 13.3930000000 10.7480000000
84 3 20.0340000000 12.6880000000 11.5740000000
85 3 -8.1560000000 -19.2530000000 21.3420000000
86 3 -7.1390000000 -20.4200000000 20.7580000000
87 3 -7.4770000000 10.2700000000 14.6840000000
88 3 -8.6670000000 11.2820000000 15.0420000000
89 3 17.2620000000 -8.7370000000 -14.5130000000
90 3 18.2640000000 -7.5740000000 -14.2400000000
91 3 7.8860000000 -9.4180000000 6.5630000000
92 3 8.9690000000 -10.4700000000 6.1160000000
93 3 10.9530000000 -2.8780000000 -13.4410000000
94 3 11.8420000000 -3.5650000000 -14.5210000000
95 3 -9.1800000000 7.4640000000 11.8220000000
96 3 -7.6800000000 7.7800000000 11.2890000000
97 3 -15.2620000000 18.6750000000 -14.7190000000
98 3 -14.0050000000 18.7320000000 -13.9540000000
99 3 -10.9810000000 14.6710000000 17.1070000000
100 3 -12.1010000000 13.8260000000 17.6760000000
101 3 17.8570000000 -11.3300000000 14.4890000000
102 3 17.1290000000 -12.7410000000 14.4490000000
103 3 10.1430000000 3.1390000000 -8.8910000000
104 3 10.9280000000 4.3970000000 -8.3840000000
105 3 -10.6310000000 2.5360000000 10.6640000000
106 3 -11.3330000000 3.2880000000 9.5080000000
107 3 13.4020000000 -8.7360000000 13.7000000000
108 3 14.9580000000 -8.8450000000 14.1840000000
109 3 28.2590000000 0.2980000000 -13.1270000000
110 3 27.0630000000 0.1570000000 -14.1790000000
111 3 -15.7980000000 2.2790000000 13.3430000000
112 3 -16.4640000000 2.5100000000 14.8250000000
113 3 -12.9710000000 -6.0380000000 -9.8640000000
114 3 -13.6190000000 -5.9050000000 -11.2650000000
115 3 6.6500000000 -19.7130000000 22.1050000000
116 3 5.1040000000 -19.7640000000 22.3200000000
117 3 13.5560000000 5.2080000000 -11.9820000000
118 3 14.5570000000 5.0440000000 -13.1630000000
119 3 1.6110000000 -6.0190000000 1.3760000000
120 3 0.2400000000 -5.9680000000 0.7020000000
121 3 -13.4420000000 -4.6420000000 6.1700000000
122 3 -12.2000000000 -4.8220000000 5.3520000000
123 3 -5.8960000000 -6.5310000000 -3.3630000000
124 3 -6.6840000000 -5.1470000000 -3.8130000000
125 3 5.8970000000 -6.6980000000 12.7310000000
126 3 5.3970000000 -5.3300000000 12.0820000000
127 3 -1.8580000000 -1.1340000000 18.2080000000
128 3 0.7330000000 -1.4860000000 19.0100000000
129 3 0.3250000000 1.3790000000 16.6980000000
130 3 0.7120000000 -1.6530000000 14.6970000000
131 3 -16.2180000000 9.1940000000 0.5970000000
132 3 -14.3710000000 11.5980000000 -1.4490000000
133 3 -13.1540000000 7.5940000000 -0.8300000000
134 3 -13.4700000000 10.8720000000 1.3650000000
135 3 -7.2040000000 -5.7280000000 2.9960000000
136 3 -7.5560000000 -2.7230000000 2.5970000000
137 3 -7.3960000000 -2.9640000000 6.5530000000
138 3 -4.5240000000 -4.7060000000 5.0210000000
139 4 -3.6360000000 7.0100000000 2.2690000000
140 4 -3.5910000000 9.0370000000 5.0830000000
141 4 1.5410000000 1.0110000000 -2.9770000000
ITEM: TIMESTEP
4
ITEM: NUMBER OF ATOMS
141
ITEM: BOX BOUNDS pp pp pp
0 11.351946
0 11.351946
0 11.351946
ITEM: ATOMS id type x y z
1 1 -0.7210000000 -0.9110000000 16.3030000000
2 1 -15.1700000000 9.8420000000 -0.1740000000
3 1 -7.4900000000 -4.1000000000 4.6520000000
4 2 9.0160000000 1.8570000000 13.8330000000
5 2 1.1930000000 -9.9390000000 12.3550000000
6 2 11.5880000000 10.1780000000 1.4800000000
7 2 4.0970000000 11.3070000000 0.7110000000
8 2 1.8540000000 -0.7540000000 -1.4890000000
9 2 -11.0230000000 4.6920000000 -6.2050000000
10 2 2.1770000000 2.6450000000 -4.2590000000
11 2 -2.0500000000 4.9250000000 -3.5120000000
12 2 -3.1260000000 31.0800000000 25.8820000000
13 2 11.9320000000 7.1870000000 6.0770000000
14 2 4.0190000000 7.5490000000 -0.6020000000
15 2 -8.0690000000 -0.6040000000 6.5780000000
16 2 18.3100000000 -6.7510000000 -1.9250000000
17 2 -6.9110000000 3.5450000000 4.7560000000
18 2 -5.4100000000 -1.7820000000 7.3480000000
19 2 19.8170000000 13.6410000000 10.9680000000
20 2 -8.3010000000 -20.0220000000 21.9040000000
21 2 -8.7950000000 11.2390000000 14.8400000000
22 2 16.4920000000 -8.5250000000 -15.2640000000
23 2 7.7310000000 -9.2540000000 5.9810000000
24 2 11.1910000000 -2.6690000000 -13.8360000000
25 2 -9.4730000000 7.8550000000 12.6810000000
26 2 -15.7530000000 18.6860000000 -14.3730000000
27 2 -12.0540000000 13.6890000000 17.9300000000
28 2 16.9990000000 -12.0030000000 15.5140000000
29 2 9.9660000000 4.6820000000 -8.6380000000
30 2 -11.4380000000 2.0360000000 9.9390000000
31 2 13.4560000000 -8.1720000000 14.3480000000
32 2 27.3190000000 0.7530000000 -13.6470000000
33 2 -16.6220000000 2.0840000000 14.4070000000
34 2 -14.5940000000 -5.3930000000 -10.7730000000
35 2 5.3440000000 -19.3680000000 23.3430000000
36 2 12.4460000000 4.7910000000 -13.2060000000
37 2 0.7810000000 -6.1310000000 1.0810000000
38 2 -15.5530000000 -6.0070000000 5.9420000000
39 2 -8.0970000000 -5.2140000000 -3.0580000000
40 2 4.6760000000 -5.5540000000 12.9120000000
41 2 -2.4340000000 -0.7750000000 16.9380000000
42 2 0.2810000000 -1.0910000000 17.8590000000
43 2 -0.3300000000 0.5150000000 15.3260000000
44 2 -0.5660000000 -2.4120000000 15.4350000000
45 2 -16.6340000000 9.0210000000 0.3030000000
46 2 -15.6760000000 11.2290000000 -1.3480000000
47 2 -13.9490000000 8.7760000000 -0.9690000000
48 2 -14.1700000000 10.4830000000 1.1920000000
49 2 -8.3010000000 -5.6420000000 4.2630000000
50 2 -7.7080000000 -2.7860000000 3.4920000000
51 2 -8.0460000000 -3.5560000000 6.2920000000
52 2 -5.7180000000 -4.4810000000 4.5170000000
53 3 9.5930000000 1.4560000000 14.5360000000
54 3 8.1560000000 1.9660000000 14.1980000000
55 3 1.0780000000 -10.8890000000 12.4470000000
56 3 2.0720000000 -9.9360000000 11.8760000000
57 3 11.8370000000 9.2390000000 1.2160000000
58 3 10.6270000000 10.1740000000 1.4210000000
59 3 4.8420000000 11.9380000000 0.8130000000
60 3 3.6900000000 11.4190000000 1.6040000000
61 3 2.6020000000 -0.8180000000 -0.8890000000
62 3 1.2520000000 -1.4490000000 -1.4110000000
63 3 -10.2500000000 4.4260000000 -6.7910000000
64 3 -10.6960000000 5.6100000000 -5.9360000000
65 3 3.1480000000 2.6140000000 -4.3720000000