ITEM: TIMESTEP
0
ITEM: NUMBER OF ATOMS
177
ITEM: BOX BOUNDS pp pp pp
0 14.294261
0 14.294261
0 8.576556
ITEM: ATOMS id type x y z
1 1 0.3730000000 3.8860000000 11.8870000000
2 1 -1.9850000000 5.6790000000 12.3180000000
3 1 -1.9700000000 8.4250000000 14.2480000000
4 1 3.1050000000 7.7050000000 13.8230000000
5 1 2.9850000000 5.2120000000 12.3040000000
6 1 0.9280000000 9.1640000000 15.0250000000
7 2 12.2030000000 11.2410000000 20.0310000000
8 2 15.3240000000 1.7710000000 -19.4690000000
9 2 12.5880000000 10.6290000000 8.6350000000
10 2 1.8980000000 11.1250000000 23.4430000000
11 2 10.4600000000 7.3420000000 18.0030000000
12 2 11.4590000000 -0.1520000000 22.6710000000
13 2 7.4860000000 0.0350000000 28.1500000000
14 2 6.9110000000 10.9230000000 10.4710000000
15 2 16.7240000000 13.7300000000 25.4030000000
16 2 6.6400000000 4.1950000000 5.1230000000
17 2 5.1400000000 2.2310000000 7.9470000000
18 2 5.6580000000 -2.0490000000 12.6320000000
19 2 11.6960000000 14.7120000000 20.1360000000
20 2 6.6520000000 12.9080000000 25.7520000000
21 2 7.5520000000 1.3620000000 5.9660000000
22 2 9.6140000000 11.6440000000 19.0650000000
23 2 5.1480000000 15.6030000000 21.0300000000
24 2 19.1070000000 -0.5740000000 -1.9900000000
25 2 1.7570000000 11.6260000000 9.6150000000
26 2 7.3180000000 22.9410000000 12.9920000000
27 2 -3.0970000000 8.8760000000 24.1840000000
28 2 11.6140000000 16.9270000000 5.3250000000
29 2 2.8780000000 11.7910000000 21.0220000000
30 2 7.0570000000 20.3950000000 28.0210000000
31 2 11.8750000000 13.4150000000 17.4060000000
32 2 0.8090000000 7.9350000000 10.7870000000
33 2 0.9900000000 17.2600000000 10.1760000000
34 2 11.5160000000 19.0910000000 7.3020000000
35 2 3.3360000000 1.4820000000 9.9740000000
36 2 13.9200000000 12.9350000000 6.0530000000
37 2 -6.0460000000 6.8550000000 7.5560000000
38 2 5.7570000000 -8.4220000000 15.4940000000
39 2 -8.5790000000 10.6830000000 23.7190000000
40 2 -4.8160000000 18.7000000000 17.8310000000
41 2 9.4490000000 1.3460000000 9.5490000000
42 2 3.7040000000 22.0400000000 26.4450000000
43 2 -0.3030000000 5.3680000000 16.7350000000
44 2 0.1230000000 -0.7310000000 28.6790000000
45 2 13.6770000000 15.8380000000 25.8820000000
46 2 -4.9760000000 12.9820000000 16.2590000000
47 2 4.1010000000 4.8970000000 25.8850000000
48 2 1.9590000000 18.3320000000 15.9710000000
49 2 22.9570000000 20.4220000000 13.3460000000
50 2 -5.2780000000 10.4540000000 15.2130000000
51 2 6.4670000000 -5.8560000000 18.0970000000
52 2 -1.2450000000 4.4880000000 10.9180000000
53 2 -0.3100000000 2.3390000000 12.6060000000
54 2 2.0790000000 3.5940000000 12.4970000000
55 2 -2.7450000000 9.1750000000 12.7500000000
56 2 -0.4910000000 5.0340000000 13.2620000000
57 2 -2.3650000000 6.6820000000 13.7510000000
58 2 2.9170000000 5.8050000000 14.1270000000
59 2 1.5430000000 5.4280000000 11.1690000000
60 2 -0.6760000000 9.8080000000 14.2660000000
61 2 4.5150000000 4.5010000000 11.6140000000
62 2 1.7200000000 8.7420000000 13.3100000000
63 2 3.4190000000 7.0150000000 12.1730000000
64 2 -1.7360000000 7.1450000000 11.2850000000
65 2 -0.3070000000 7.7410000000 15.1510000000
66 2 -3.4700000000 4.8340000000 12.2930000000
67 2 4.7920000000 8.1110000000 14.2540000000
68 2 2.3750000000 8.2140000000 15.5070000000
69 2 0.6640000000 9.5940000000 16.9530000000
70 3 11.8920000000 10.4700000000 20.6070000000
71 3 12.8320000000 11.7760000000 20.5420000000
72 3 14.6920000000 1.7840000000 -20.2880000000
73 3 15.4450000000 0.8580000000 -19.1150000000
74 3 12.0800000000 10.0150000000 8.0390000000
75 3 12.2110000000 10.5290000000 9.4830000000
76 3 2.3250000000 11.3550000000 22.5810000000
77 3 1.1190000000 11.6210000000 23.6010000000
78 3 11.3290000000 7.1800000000 18.4700000000
79 3 10.2050000000 8.1530000000 18.4640000000
80 3 10.5810000000 -0.4250000000 22.8890000000
81 3 11.5200000000 0.8010000000 22.8990000000
82 3 6.9900000000 -0.4130000000 27.4140000000
83 3 7.4940000000 -0.6920000000 28.8010000000
84 3 7.8710000000 11.0550000000 10.7030000000
85 3 6.7400000000 10.0090000000 10.2270000000
86 3 17.0520000000 14.5030000000 25.9490000000
87 3 17.3730000000 13.6380000000 24.6060000000
88 3 6.1520000000 4.7310000000 5.8110000000
89 3 5.9880000000 4.2450000000 4.3390000000
90 3 4.7970000000 2.9980000000 7.5210000000
91 3 6.1360000000 2.2640000000 7.7640000000
92 3 6.1310000000 -2.6250000000 11.9620000000
93 3 5.8170000000 -2.5450000000 13.4890000000
94 3 11.4350000000 13.9440000000 19.5640000000
95 3 11.6730000000 14.4410000000 21.0420000000
96 3 6.3960000000 12.0490000000 26.2080000000
97 3 6.0090000000 13.0880000000 24.9860000000
98 3 7.9820000000 2.2270000000 5.7170000000
99 3 8.3540000000 0.7280000000 6.1030000000
100 3 9.6820000000 12.1670000000 18.2550000000
101 3 10.4590000000 11.5870000000 19.5530000000
102 3 5.9220000000 15.1950000000 20.5690000000
103 3 5.6230000000 16.1690000000 21.6620000000
104 3 19.2890000000 0.3180000000 -2.2730000000
105 3 18.8740000000 -0.9800000000 -2.7870000000
106 3 2.2920000000 12.2940000000 9.1670000000
107 3 1.0440000000 12.1940000000 9.9220000000
108 3 7.5990000000 22.7500000000 12.0890000000
109 3 7.6710000000 22.1280000000 13.4400000000
110 3 -3.4910000000 8.3050000000 24.8370000000
111 3 1.1900000000 10.2980000000 25.9460000000
112 3 11.2530000000 17.6310000000 4.7540000000
113 3 12.5640000000 16.9610000000 5.1110000000
114 3 3.8320000000 12.0390000000 20.8400000000
115 3 2.5250000000 11.4690000000 20.1270000000
116 3 6.1650000000 20.0950000000 28.2130000000
117 3 7.5750000000 19.6350000000 27.6420000000
118 3 12.0320000000 12.4600000000 17.2590000000
119 3 11.0350000000 13.4890000000 16.8720000000
120 3 0.8640000000 8.3570000000 9.9580000000
121 3 -0.2070000000 7.6660000000 10.9370000000
122 3 1.9110000000 17.0020000000 10.1370000000
123 3 0.5520000000 16.5820000000 9.5800000000
124 3 10.8410000000 19.2180000000 8.0180000000
125 3 11.3810000000 18.2460000000 6.8640000000
126 3 3.9530000000 1.7720000000 9.3040000000
127 3 3.8890000000 1.3960000000 10.7660000000
128 3 14.0730000000 13.3170000000 5.1750000000
129 3 13.0310000000 13.2110000000 6.2380000000
130 3 -5.6940000000 6.6940000000 8.4530000000
131 3 -6.9070000000 6.4770000000 7.4420000000
132 3 5.1250000000 -8.6510000000 16.2170000000
133 3 5.5230000000 -7.5410000000 15.0740000000
134 3 -7.6740000000 10.5420000000 23.9840000000
135 3 -8.9050000000 9.7640000000 23.4350000000
136 3 -4.8810000000 17.7410000000 17.7870000000
137 3 -4.2790000000 18.8700000000 18.6360000000
138 3 8.6800000000 0.8720000000 9.9050000000
139 3 10.1270000000 1.3190000000 10.1960000000
140 3 4.5320000000 22.5260000000 26.4970000000
141 3 3.7090000000 21.0880000000 26.2210000000
142 3 -0.4560000000 5.4260000000 17.6830000000
143 3 -1.1510000000 4.9000000000 16.3560000000
144 3 -0.7690000000 -0.2750000000 28.6440000000
145 3 0.7260000000 0.0810000000 28.8690000000
146 3 13.8910000000 16.1460000000 24.9990000000
147 3 13.2870000000 15.0330000000 25.8790000000
148 3 -5.9180000000 13.1440000000 16.5680000000
149 3 -5.2230000000 12.0560000000 15.9690000000
150 3 4.0800000000 4.7080000000 26.8470000000
151 3 3.2200000000 4.4570000000 25.5030000000
152 3 1.6810000000 17.5180000000 15.5430000000
153 3 1.1940000000 18.7230000000 16.3930000000
154 3 22.4060000000 19.6250000000 13.4710000000
155 3 23.1910000000 20.5460000000 14.2410000000
156 3 -5.7010000000 10.2180000000 14.3750000000
157 3 -4.4840000000 9.8850000000 15.3070000000
158 3 6.7760000000 -6.5920000000 18.6340000000
159 3 6.7570000000 -6.0120000000 17.2230000000
160 3 -1.8800000000 3.7780000000 10.6910000000
161 3 -1.0400000000 1.9180000000 12.1050000000
162 3 2.3510000000 3.0830000000 13.2840000000
163 3 -3.6190000000 8.6930000000 12.6830000000
164 3 -0.1440000000 5.7160000000 13.8720000000
165 3 -2.5880000000 6.1200000000 14.5180000000
166 3 2.6420000000 5.3350000000 14.9000000000
167 3 1.2700000000 6.3700000000 11.0110000000
168 3 -1.0030000000 10.7270000000 14.0870000000
169 3 4.4140000000 3.5920000000 11.5980000000
170 3 1.3230000000 8.6970000000 12.4080000000
171 3 3.2940000000 7.5900000000 11.3600000000
172 3 -2.0600000000 7.9540000000 11.6550000000
173 3 -0.1350000000 7.0000000000 15.7440000000
174 3 -4.1240000000 5.2940000000 12.8540000000
175 3 5.4210000000 8.1080000000 13.4950000000
176 3 2.7590000000 8.2400000000 16.4330000000
177 3 -0.2270000000 9.9880000000 17.0880000000
ITEM: TIMESTEP
1
ITEM: NUMBER OF ATOMS
177
ITEM: BOX BOUNDS pp pp pp
0 14.294261
0 14.294261
0 8.576556
ITEM: ATOMS id type x y z
1 1 0.3380000000 3.5250000000 11.7670000000
2 1 -2.0790000000 5.5280000000 12.3680000000
3 1 -1.9020000000 8.5960000000 14.4100000000
4 1 3.1890000000 7.6950000000 13.9000000000
5 1 3.0160000000 5.3320000000 12.1840000000
6 1 0.9070000000 9.1740000000 14.9730000000
7 2 12.3220000000 11.3170000000 20.0000000000
8 2 15.3550000000 1.4580000000 -19.4560000000
9 2 12.3450000000 10.4410000000 8.8310000000
10 2 1.6550000000 10.9200000000 23.2670000000
11 2 10.2500000000 7.5750000000 18.1160000000
12 2 11.3560000000 -0.1620000000 23.0210000000
13 2 7.2160000000 0.0460000000 28.0620000000
14 2 7.0340000000 10.8300000000 10.6210000000
15 2 17.1370000000 13.7620000000 25.1460000000
16 2 6.7780000000 3.8180000000 5.1270000000
17 2 5.4950000000 2.0550000000 7.6720000000
18 2 5.6730000000 -2.1830000000 12.6160000000
19 2 11.7480000000 14.9140000000 19.7310000000
20 2 6.6490000000 13.1600000000 25.7530000000
21 2 7.4460000000 1.3370000000 5.9920000000
22 2 9.7240000000 11.3720000000 18.7890000000
23 2 5.1500000000 15.8770000000 21.0750000000
24 2 19.4510000000 -0.5190000000 -2.1740000000
25 2 1.7780000000 11.7920000000 9.5680000000
26 2 7.5560000000 22.9650000000 12.7670000000
27 2 -3.1080000000 8.9130000000 24.3470000000
28 2 11.2960000000 16.9670000000 5.4000000000
29 2 2.9070000000 11.8600000000 21.1260000000
30 2 7.0260000000 20.3590000000 28.0090000000
31 2 12.2550000000 13.5170000000 17.4830000000
32 2 0.5500000000 8.1550000000 10.8130000000
33 2 1.1920000000 17.0920000000 9.9020000000
34 2 11.3280000000 19.1150000000 7.3580000000
35 2 3.4360000000 1.4490000000 9.8820000000
36 2 14.1820000000 13.0590000000 5.9330000000
37 2 -6.3770000000 6.9590000000 7.6700000000
38 2 5.7160000000 -8.7290000000 15.6140000000
39 2 -8.4330000000 10.8350000000 23.5320000000
40 2 -5.1070000000 18.7170000000 17.8520000000
41 2 9.3170000000 1.4400000000 9.4500000000
42 2 3.8200000000 22.2820000000 26.5030000000
43 2 -0.4540000000 5.4980000000 16.9130000000
44 2 -0.0030000000 -0.7580000000 28.5760000000
45 2 13.4490000000 15.9990000000 25.8510000000
46 2 -4.7800000000 12.8430000000 16.2620000000
47 2 4.0010000000 4.9860000000 26.2100000000
48 2 1.7580000000 18.4980000000 16.0100000000
49 2 22.9590000000 20.2790000000 13.3880000000
50 2 -5.3510000000 10.3090000000 14.9670000000
51 2 6.4780000000 -5.8580000000 17.9630000000
52 2 -1.1080000000 4.3150000000 10.8020000000
53 2 -0.3340000000 1.9630000000 12.4170000000
54 2 2.0310000000 3.4140000000 12.6140000000
55 2 -2.5310000000 9.1450000000 12.8670000000
56 2 -0.6210000000 4.6780000000 13.1060000000
57 2 -2.6330000000 6.7220000000 13.8470000000
58 2 2.9380000000 5.9160000000 13.9730000000
59 2 1.4380000000 5.2330000000 11.3490000000
60 2 -0.7710000000 10.0780000000 14.3860000000
61 2 4.5230000000 4.5070000000 11.6970000000
62 2 1.6430000000 8.6350000000 13.3720000000
63 2 3.6400000000 7.1380000000 12.0610000000
64 2 -1.8510000000 6.9860000000 11.3080000000
65 2 -0.2870000000 7.8270000000 15.1050000000
66 2 -3.4700000000 4.5490000000 12.0200000000
67 2 4.8720000000 8.2160000000 14.3810000000
68 2 2.4740000000 8.3040000000 15.6190000000
69 2 0.5130000000 9.8690000000 16.7860000000
70 3 12.1010000000 10.5580000000 20.6050000000
71 3 13.3180000000 11.4640000000 20.1450000000
72 3 14.8520000000 1.4940000000 -20.2620000000
73 3 15.7960000000 0.5820000000 -19.4660000000
74 3 11.8510000000 9.9610000000 8.0820000000
75 3 11.9030000000 10.1660000000 9.6840000000
76 3 2.1080000000 11.1400000000 22.4300000000
77 3 1.1170000000 11.7510000000 23.3560000000
78 3 11.0840000000 7.3520000000 18.5670000000
79 3 9.8890000000 8.4250000000 18.5110000000
80 3 10.6380000000 -0.4220000000 23.6710000000
81 3 11.3080000000 0.7810000000 22.9680000000
82 3 6.9270000000 -0.3260000000 27.1820000000
83 3 7.3670000000 -0.6790000000 28.6840000000
84 3 7.9910000000 11.0560000000 10.3820000000
85 3 6.8440000000 10.1360000000 9.9880000000
86 3 17.4900000000 14.5080000000 25.6750000000
87 3 17.7020000000 13.6720000000 24.4070000000
88 3 6.4870000000 4.3720000000 5.9310000000
89 3 6.1650000000 4.1550000000 4.4290000000
90 3 5.3060000000 3.0480000000 7.6870000000
91 3 6.3670000000 1.9360000000 7.2810000000
92 3 5.9550000000 -2.8260000000 11.9450000000
93 3 5.7510000000 -2.6300000000 13.5030000000
94 3 11.7060000000 14.1940000000 19.0340000000
95 3 11.4490000000 14.4110000000 20.5820000000
96 3 6.4250000000 12.2660000000 26.0000000000
97 3 6.0990000000 13.3690000000 24.9480000000
98 3 7.5690000000 2.2320000000 5.6790000000
99 3 8.2610000000 0.9980000000 6.2750000000
100 3 9.8300000000 11.7690000000 17.8800000000
101 3 10.6220000000 11.6120000000 19.1460000000
102 3 5.7520000000 15.3160000000 20.6030000000
103 3 5.7300000000 16.4480000000 21.5890000000
104 3 19.3470000000 0.4640000000 -2.1080000000
105 3 19.7090000000 -0.6910000000 -3.1610000000
106 3 2.3710000000 12.3860000000 9.0190000000
107 3 1.1010000000 12.4290000000 9.9460000000
108 3 7.3930000000 23.6660000000 12.1060000000
109 3 7.6530000000 22.0880000000 12.3350000000
110 3 -3.2880000000 8.1720000000 25.0330000000
111 3 1.0880000000 10.6470000000 25.8300000000
112 3 10.9850000000 17.3890000000 4.5370000000
113 3 12.3020000000 17.1210000000 5.3880000000
114 3 3.9190000000 12.0630000000 21.0310000000
115 3 2.6290000000 11.4000000000 20.3310000000
116 3 6.1850000000 19.8240000000 28.1460000000
117 3 7.5930000000 19.7790000000 27.5090000000
118 3 12.5190000000 12.6110000000 17.5960000000
119 3 11.3830000000 13.5610000000 17.0800000000
120 3 0.5830000000 8.3940000000 9.8080000000
121 3 -0.3200000000 7.7520000000 10.9750000000
122 3 2.1240000000 16.8210000000 9.6280000000
123 3 0.6210000000 16.3320000000 9.7470000000
124 3 10.6260000000 18.9420000000 8.0120000000
125 3 11.2910000000 18.3110000000 6.8170000000
126 3 4.4020000000 1.5960000000 9.5920000000
127 3 3.4410000000 1.5720000000 10.8510000000
128 3 14.1870000000 13.1300000000 4.9600000000
129 3 13.3350000000 13.4670000000 6.2280000000
130 3 -5.8350000000 6.6140000000 8.3750000000
131 3 -7.0090000000 6.2610000000 7.5080000000
132 3 5.0970000000 -8.6680000000 16.3940000000
133 3 5.5890000000 -7.8230000000 15.2100000000
134 3 -7.4940000000 10.5680000000 23.8400000000
135 3 -8.8970000000 9.9660000000 23.3450000000
136 3 -5.4250000000 17.7830000000 18.0290000000
137 3 -4.5290000000 18.8840000000 18.5740000000
138 3 8.9530000000 0.7420000000 10.0990000000
139 3 10.2090000000 1.6070000000 9.8950000000
140 3 4.8360000000 22.4370000000 26.5570000000
141 3 3.9620000000 21.3000000000 26.4230000000
142 3 -0.5820000000 5.3440000000 17.9000000000
143 3 -1.3220000000 5.1190000000 16.4950000000
144 3 -0.8960000000 -0.2490000000 28.5060000000
145 3 0.6030000000 -0.0770000000 28.7420000000
146 3 13.9980000000 15.9450000000 25.0300000000
147 3 13.2460000000 14.9960000000 25.9660000000
148 3 -5.7340000000 13.1120000000 16.5050000000
149 3 -4.7720000000 11.9570000000 15.8600000000
150 3 4.0880000000 4.8290000000 27.1690000000
151 3 3.1200000000 4.6740000000 25.7620000000
152 3 1.4560000000 17.6220000000 15.6600000000
153 3 0.9900000000 18.7290000000 16.5040000000
154 3 22.3740000000 19.4780000000 13.4500000000
155 3 22.7940000000 20.9520000000 14.1280000000
156 3 -5.7970000000 9.7030000000 14.3490000000
157 3 -4.6470000000 9.7330000000 15.3410000000
158 3 6.6660000000 -6.5120000000 18.6400000000
159 3 6.9650000000 -6.3040000000 17.1840000000
160 3 -1.5500000000 3.7830000000 10.1830000000
161 3 -1.1920000000 1.8290000000 12.0130000000
162 3 1.9710000000 2.7870000000 13.2980000000
163 3 -3.4970000000 9.1050000000 12.7970000000
164 3 -0.0250000000 5.0960000000 13.7250000000
165 3 -3.1360000000 6.2760000000 14.5360000000
166 3 2.6170000000 5.4530000000 14.7680000000
167 3 1.1080000000 6.0410000000 10.8890000000
168 3 -0.9000000000 11.0470000000 14.4130000000
169 3 4.4640000000 3.4670000000 11.6010000000
170 3 1.3940000000 8.7020000000 12.4860000000
171 3 3.4840000000 7.6340000000 11.2570000000
172 3 -2.1400000000 7.7210000000 11.8790000000
173 3 -0.2310000000 6.9870000000 15.6470000000
174 3 -4.2760000000 4.9740000000 12.3390000000
175 3 5.5530000000 8.1530000000 13.6740000000
176 3 3.0890000000 8.3850000000 16.3910000000
177 3 -0.4800000000 9.9710000000 17.0950000000
ITEM: TIMESTEP
2
ITEM: NUMBER OF ATOMS
177
ITEM: BOX BOUNDS pp pp pp
0 14.294261
0 14.294261
0 8.576556
ITEM: ATOMS id type x y z
1 1 0.4920000000 3.3900000000 11.6370000000
2 1 -2.1750000000 5.6130000000 12.2980000000
3 1 -2.0410000000 8.4120000000 14.4130000000
4 1 3.1620000000 7.7590000000 13.8730000000
5 1 2.9260000000 5.2620000000 12.4160000000
6 1 0.8780000000 9.2870000000 14.9380000000
7 2 12.3480000000 11.2840000000 20.2340000000
8 2 15.3720000000 1.4180000000 -19.4590000000
9 2 12.4680000000 10.6190000000 9.0050000000
10 2 1.9620000000 10.9670000000 23.3120000000
11 2 10.1150000000 7.6770000000 18.1710000000
12 2 11.4190000000 -0.2270000000 23.2470000000
13 2 6.8080000000 0.1920000000 28.3080000000
14 2 7.1970000000 10.7440000000 10.6220000000
15 2 17.2120000000 13.5060000000 24.7500000000
16 2 6.6910000000 3.7910000000 5.0240000000
17 2 5.6320000000 2.0690000000 7.7430000000
18 2 5.7330000000 -2.2960000000 12.6180000000
19 2 11.3970000000 14.8780000000 19.5040000000
20 2 6.7700000000 13.2530000000 25.6120000000
21 2 7.8920000000 1.2290000000 6.0890000000
22 2 9.8170000000 11.0790000000 18.5790000000
23 2 5.0890000000 16.0060000000 20.8830000000
24 2 19.5020000000 -0.3970000000 -2.4780000000
25 2 1.6850000000 11.9430000000 9.6190000000
26 2 7.8410000000 23.0530000000 12.5900000000
27 2 -3.2420000000 8.8270000000 24.3330000000
28 2 11.1730000000 16.9000000000 5.4770000000
29 2 2.9330000000 11.8360000000 20.9300000000
30 2 6.8050000000 20.2540000000 28.0700000000
31 2 12.2180000000 13.1260000000 17.4460000000
32 2 0.4470000000 8.2250000000 10.7890000000
33 2 1.1710000000 16.9380000000 10.0640000000
34 2 10.9860000000 19.0070000000 7.3830000000
35 2 3.9890000000 1.4870000000 9.8700000000
36 2 14.1770000000 12.9870000000 5.5230000000
37 2 -6.0580000000 7.0060000000 7.6860000000
38 2 5.6600000000 -8.9500000000 15.6150000000
39 2 -8.1770000000 10.6560000000 23.5980000000
40 2 -5.3080000000 18.6930000000 18.2960000000
41 2 9.3050000000 1.6800000000 9.3030000000
42 2 3.6950000000 22.2920000000 26.6360000000
43 2 -0.5760000000 5.6220000000 17.0980000000
44 2 0.1420000000 -0.8450000000 28.5210000000
45 2 13.2090000000 15.9640000000 25.3260000000
46 2 -4.7990000000 12.4690000000 16.0930000000
47 2 3.8780000000 5.1600000000 26.1980000000
48 2 1.7230000000 18.7460000000 15.9120000000
49 2 22.9590000000 20.3210000000 13.4490000000
50 2 -5.5220000000 10.0970000000 14.7810000000
51 2 6.5280000000 -5.9210000000 18.0320000000
52 2 -0.9420000000 4.0770000000 10.7070000000
53 2 -0.0470000000 1.7060000000 12.1910000000
54 2 2.0720000000 3.5700000000 12.7050000000
55 2 -2.7960000000 9.1360000000 12.9970000000
56 2 -0.8980000000 4.4880000000 13.0790000000
57 2 -2.4660000000 6.6130000000 13.9180000000
58 2 2.8070000000 5.9800000000 14.0850000000
59 2 1.6000000000 5.3000000000 11.2160000000
60 2 -0.7460000000 10.0620000000 14.3890000000
61 2 4.4180000000 4.5740000000 11.7640000000
62 2 1.6810000000 8.8590000000 13.2300000000
63 2 3.5780000000 7.0580000000 12.2080000000
64 2 -2.0510000000 6.9240000000 11.0490000000
65 2 -0.4490000000 7.7940000000 15.1720000000
66 2 -3.5510000000 4.6280000000 12.0180000000
67 2 4.8680000000 8.2790000000 14.3950000000
68 2 2.3450000000 8.2680000000 15.5120000000
69 2 0.6450000000 9.8780000000 16.8530000000
70 3 11.9570000000 10.5280000000 20.7990000000
71 3 13.0780000000 11.5200000000 20.7660000000
72 3 14.9070000000 1.5280000000 -20.3690000000
73 3 15.8280000000 0.5890000000 -19.5050000000
74 3 11.7860000000 10.1330000000 8.4830000000
75 3 12.2830000000 10.4450000000 9.9290000000
76 3 2.4780000000 11.0840000000 22.4160000000
77 3 1.8480000000 11.8970000000 23.6390000000
78 3 10.9440000000 7.5300000000 18.6950000000
79 3 9.9380000000 8.6060000000 18.2670000000
80 3 10.7410000000 -0.7500000000 23.6430000000
81 3 11.1690000000 0.7170000000 23.4870000000
82 3 6.8000000000 -0.2780000000 27.4720000000
83 3 6.6060000000 -0.5520000000 28.9110000000
84 3 8.1770000000 10.9260000000 10.3960000000
85 3 6.7900000000 10.0950000000 10.0620000000
86 3 17.4100000000 14.3560000000 25.1840000000
87 3 17.9200000000 13.4530000000 24.0930000000
88 3 6.1740000000 4.1930000000 5.8460000000
89 3 6.0230000000 4.0460000000 4.3470000000
90 3 5.7800000000 2.9480000000 7.3490000000
91 3 6.3120000000 1.5260000000 7.3530000000
92 3 6.1770000000 -2.8360000000 11.8800000000
93 3 6.0760000000 -2.8030000000 13.4090000000
94 3 11.6850000000 14.2760000000 18.7530000000
95 3 11.2210000000 14.3190000000 20.2140000000
96 3 6.7020000000 12.2730000000 25.7480000000
97 3 6.0950000000 13.4250000000 24.9080000000
98 3 7.6340000000 2.0930000000 5.6750000000
99 3 8.6410000000 1.5190000000 6.6630000000
100 3 9.8240000000 11.6000000000 17.7220000000
101 3 10.3070000000 11.6010000000 19.2310000000
102 3 5.9490000000 15.6130000000 20.5430000000
103 3 5.3410000000 16.7970000000 21.4110000000
104 3 19.3260000000 0.3720000000 -3.0380000000
105 3 19.7650000000 -0.9960000000 -3.1130000000
106 3 2.2320000000 12.4430000000 8.9910000000
107 3 1.1840000000 12.5830000000 10.1160000000
108 3 7.4080000000 23.3930000000 11.7890000000
109 3 7.8050000000 22.0890000000 12.5340000000
110 3 -3.4210000000 8.1650000000 24.9510000000
111 3 1.0590000000 10.6600000000 25.7780000000
112 3 10.5190000000 17.2250000000 4.8030000000
113 3 11.9430000000 17.2430000000 5.0280000000
114 3 3.9480000000 11.8340000000 21.0170000000
115 3 2.7290000000 11.5840000000 19.9950000000
116 3 6.0460000000 19.7020000000 28.1840000000
117 3 7.5080000000 19.7400000000 27.5870000000
118 3 12.2790000000 12.1440000000 17.2450000000
119 3 11.6770000000 13.4400000000 16.6750000000
120 3 0.7250000000 8.4100000000 9.9420000000
121 3 -0.4220000000 7.8120000000 10.7200000000
122 3 2.0150000000 16.3890000000 9.9770000000
123 3 0.5050000000 16.4800000000 9.5440000000
124 3 10.4340000000 18.7900000000 8.1580000000
125 3 11.1430000000 18.1440000000 6.8380000000
126 3 4.5290000000 1.6210000000 9.0850000000
127 3 4.5830000000 1.7180000000 10.6290000000
128 3 14.3370000000 13.1330000000 4.5560000000
129 3 13.2830000000 13.4590000000 5.6440000000
130 3 -5.4370000000 6.7860000000 8.4480000000
131 3 -6.6080000000 6.1930000000 7.5230000000
132 3 5.0290000000 -9.0400000000 16.3810000000
133 3 5.7200000000 -8.0460000000 15.3270000000
134 3 -7.2790000000 10.2810000000 23.6250000000
135 3 -8.7810000000 9.8890000000 23.3940000000
136 3 -5.3830000000 17.7250000000 18.2890000000
137 3 -4.6370000000 18.9110000000 18.9850000000
138 3 8.6410000000 1.2170000000 9.8010000000
139 3 10.1020000000 1.5620000000 9.8210000000
140 3 4.5520000000 22.7020000000 26.3840000000
141 3 3.6620000000 21.3460000000 26.4670000000
142 3 -0.5390000000 5.4010000000 18.0720000000
143 3 -1.4000000000 5.2380000000 16.9020000000
144 3 -0.5790000000 -1.0350000000 27.9860000000
145 3 0.1110000000 0.1060000000 28.6530000000
146 3 13.6460000000 15.8330000000 24.4610000000
147 3 13.3940000000 15.1350000000 25.7990000000
148 3 -5.6120000000 12.9000000000 16.3620000000
149 3 -5.1090000000 11.7330000000 15.4930000000
150 3 3.8840000000 4.9180000000 27.1570000000
151 3 2.9950000000 4.9550000000 25.9860000000
152 3 1.5600000000 17.8600000000 15.6110000000
153 3 0.9670000000 19.0870000000 16.3860000000
154 3 22.1900000000 19.7800000000 13.5690000000
155 3 23.2930000000 20.3930000000 14.3290000000
156 3 -5.7850000000 9.7250000000 13.9110000000
157 3 -4.8950000000 9.4120000000 15.1770000000
158 3 6.6370000000 -6.5950000000 18.7420000000
159 3 7.0620000000 -6.2250000000 17.2410000000
160 3 -1.6960000000 3.5230000000 10.3730000000
161 3 -1.0080000000 1.5400000000 12.1180000000
162 3 2.3510000000 3.0890000000 13.5400000000
163 3 -3.7330000000 8.9840000000 12.9300000000
164 3 -0.4270000000 5.0730000000 13.7140000000
165 3 -2.6080000000 6.0330000000 14.7110000000
166 3 2.3290000000 5.4720000000 14.7930000000
167 3 1.2240000000 6.1460000000 10.9750000000
168 3 -0.6820000000 10.9370000000 14.0050000000
169 3 4.2210000000 3.7630000000 11.4020000000
170 3 1.1700000000 8.7600000000 12.3960000000
171 3 3.4760000000 7.5470000000 11.3370000000
172 3 -2.2750000000 7.7840000000 11.5170000000
173 3 -0.4140000000 7.0560000000 15.7980000000
174 3 -4.3090000000 5.0900000000 12.4420000000
175 3 5.4610000000 8.1730000000 13.6540000000
176 3 2.7860000000 8.4660000000 16.3720000000
177 3 -0.2910000000 9.9820000000 17.1050000000
ITEM: TIMESTEP
3
ITEM: NUMBER OF ATOMS
177
ITEM: BOX BOUNDS pp pp pp
0 14.294261
0 14.294261
0 8.576556
ITEM: ATOMS id type x y z
1 1 0.5290000000 3.4810000000 11.6120000000
2 1 -2.2030000000 5.5050000000 12.3740000000
3 1 -1.9810000000 8.4900000000 14.3800000000
4 1 3.0290000000 7.8450000000 13.8740000000
5 1 2.8880000000 5.3350000000 12.3540000000
6 1 0.9200000000 9.3110000000 15.0390000000
7 2 12.0570000000 11.2270000000 20.3910000000
8 2 15.4920000000 1.5620000000 -19.6160000000
9 2 12.7550000000 10.2910000000 9.0940000000
10 2 1.8990000000 11.0580000000 23.4310000000
11 2 10.1110000000 7.8330000000 18.2550000000
12 2 11.4400000000 -0.3390000000 23.3260000000
13 2 6.7830000000 0.0670000000 28.3790000000
14 2 7.1710000000 10.8670000000 10.4670000000
15 2 17.2140000000 13.6130000000 24.5750000000
16 2 6.5290000000 4.1280000000 4.8570000000
17 2 5.8810000000 2.2480000000 7.8150000000
18 2 5.9140000000 -2.5840000000 12.6670000000
19 2 11.1110000000 14.7580000000 19.4310000000
20 2 6.8970000000 13.2270000000 25.6190000000
21 2 8.5410000000 1.2950000000 6.3750000000
22 2 9.9070000000 10.8830000000 18.4190000000
23 2 5.0210000000 16.0670000000 21.2010000000
24 2 19.3560000000 -0.3190000000 -2.8710000000
25 2 1.8340000000 11.8640000000 9.4710000000
26 2 8.1750000000 22.8040000000 12.5650000000
27 2 -3.2210000000 8.7380000000 24.2920000000
28 2 11.2670000000 16.9110000000 5.3300000000
29 2 2.8670000000 11.8000000000 20.8620000000
30 2 6.6170000000 20.3690000000 28.1640000000
31 2 12.1620000000 13.2250000000 17.3910000000
32 2 0.5240000000 7.8750000000 10.8440000000
33 2 1.5910000000 16.9540000000 9.9470000000
34 2 10.8310000000 18.9880000000 7.6420000000
35 2 3.7550000000 1.4670000000 9.5320000000
36 2 13.9280000000 12.6940000000 5.2580000000
37 2 -5.8000000000 6.7380000000 7.5970000000
38 2 5.6370000000 -8.9890000000 15.6210000000
39 2 -8.2020000000 10.5710000000 23.8700000000
40 2 -5.3200000000 18.9410000000 18.6410000000
41 2 9.1270000000 1.6160000000 9.0460000000
42 2 3.5530000000 22.2940000000 26.5350000000
43 2 -0.8000000000 5.5520000000 16.8680000000
44 2 0.1620000000 -0.6090000000 28.1910000000
45 2 13.4570000000 16.0640000000 25.0730000000
46 2 -4.9290000000 12.1420000000 15.8180000000
47 2 3.7380000000 5.3100000000 26.0740000000
48 2 1.4080000000 18.7930000000 16.0510000000
49 2 22.8820000000 20.3060000000 13.4900000000
50 2 -5.5130000000 9.8620000000 14.7740000000
51 2 6.5070000000 -5.9620000000 18.1850000000
52 2 -0.9620000000 4.0120000000 10.5470000000
53 2 0.0540000000 2.0040000000 12.3200000000
54 2 1.9930000000 3.6460000000 12.8530000000
55 2 -2.8660000000 8.9050000000 12.8900000000
56 2 -0.7080000000 4.5870000000 12.9690000000
57 2 -2.4170000000 6.5400000000 13.9470000000
58 2 2.8550000000 5.9180000000 14.1470000000
59 2 1.3980000000 5.1410000000 11.2450000000
60 2 -0.8180000000 9.9290000000 14.1970000000
61 2 4.3210000000 4.6050000000 11.6560000000
62 2 1.6230000000 8.8430000000 13.2040000000
63 2 3.2540000000 7.0670000000 12.1530000000
64 2 -1.9450000000 6.9350000000 11.3410000000
65 2 -0.4020000000 7.9110000000 15.1880000000
66 2 -3.7040000000 4.7000000000 12.1960000000
67 2 4.7200000000 8.3310000000 14.1760000000
68 2 2.3340000000 8.2860000000 15.5400000000
69 2 0.6960000000 9.7110000000 16.8850000000
70 3 11.7410000000 10.4480000000 20.9360000000
71 3 12.9010000000 11.5800000000 20.6870000000
72 3 15.1110000000 1.6080000000 -20.4760000000
73 3 15.9490000000 0.6760000000 -19.6260000000
74 3 12.1280000000 9.8030000000 8.5520000000
75 3 12.6240000000 10.1700000000 10.0280000000
76 3 2.3310000000 10.9870000000 22.5060000000
77 3 1.5200000000 11.9530000000 23.5500000000
78 3 10.7850000000 7.4060000000 18.8310000000
79 3 9.9770000000 8.7770000000 18.5320000000
80 3 10.6570000000 -0.9790000000 23.4170000000
81 3 11.0710000000 0.5340000000 23.3300000000
82 3 6.9440000000 -0.3620000000 27.5030000000
83 3 6.6830000000 -0.6430000000 29.0390000000
84 3 8.1400000000 10.7620000000 10.3140000000
85 3 6.9140000000 9.9930000000 10.1160000000
86 3 17.5680000000 14.3230000000 25.1060000000
87 3 17.9220000000 13.3430000000 23.9820000000
88 3 6.2420000000 4.3160000000 5.8160000000
89 3 5.8290000000 4.3770000000 4.1820000000
90 3 5.4720000000 3.0180000000 7.4530000000
91 3 6.5320000000 1.9100000000 7.1230000000
92 3 6.5100000000 -2.8860000000 11.8930000000
93 3 6.1820000000 -2.9090000000 13.5590000000
94 3 11.3000000000 13.9670000000 18.9150000000
95 3 10.8600000000 14.4110000000 20.3260000000
96 3 6.6710000000 12.3380000000 25.8940000000
97 3 6.4030000000 13.4080000000 24.8260000000
98 3 8.5800000000 1.9830000000 5.7550000000
99 3 8.9910000000 1.5660000000 7.1980000000
100 3 10.1420000000 11.2330000000 17.5380000000
101 3 10.5950000000 11.2680000000 19.0240000000
102 3 5.7160000000 15.7430000000 20.6630000000
103 3 5.4630000000 16.8660000000 21.5960000000
104 3 19.1110000000 0.5210000000 -3.2920000000
105 3 19.6410000000 -0.9330000000 -3.6330000000
106 3 2.3030000000 12.4180000000 8.7930000000
107 3 1.2570000000 12.5040000000 9.8820000000