-684147.215 
-684150.874 
-684153.096 
-684151.749 
-684161.523 
-684166.166 
-684148.814 
-684147.666 
-684162.672 
-684151.177 
-684154.213 
-684144.660 
-684150.690 
-684148.800 
-684130.053 
-684130.534 
-684150.856 
-684146.929 
-684154.451 
-684128.669 
