-684189.077 
-684180.248 
-684182.866 
-684179.305 
-684179.776 
-684188.640 
-684178.009 
-684175.625 
-684174.341 
-684178.820 
-684161.144 
-684161.195 
-684172.169 
-684183.919 
-684184.146 
-684184.878 
-684183.683 
-684183.160 
-684189.142 
-684194.932 
