ITEM: TIMESTEP
0
ITEM: NUMBER OF ATOMS
177
ITEM: BOX BOUNDS pp pp pp
0 14.294261
0 14.294261
0 8.576556
ITEM: ATOMS id type x y z
1 1 0.5400000000 3.8740000000 11.7630000000
2 1 -1.7890000000 5.7320000000 12.2110000000
3 1 -1.8420000000 8.4770000000 14.3890000000
4 1 3.2770000000 7.6650000000 13.8530000000
5 1 3.1160000000 5.1810000000 12.3770000000
6 1 1.0270000000 8.9760000000 14.9930000000
7 2 12.2560000000 11.1730000000 20.0610000000
8 2 15.4430000000 1.7770000000 -19.4410000000
9 2 12.7650000000 10.7230000000 8.5440000000
10 2 2.0250000000 10.8230000000 23.5800000000
11 2 10.7080000000 7.1260000000 17.9460000000
12 2 11.4480000000 -0.1750000000 22.7540000000
13 2 7.5000000000 -0.1390000000 28.2360000000
14 2 7.0260000000 10.9150000000 10.4250000000
15 2 16.5960000000 13.7410000000 25.3400000000
16 2 6.5910000000 4.2030000000 4.9270000000
17 2 5.0870000000 2.3490000000 8.0230000000
18 2 5.9310000000 -2.1290000000 12.6850000000
19 2 11.8390000000 14.4590000000 19.9960000000
20 2 6.7900000000 12.7970000000 25.7160000000
21 2 7.7170000000 1.2570000000 6.0370000000
22 2 9.6140000000 11.7930000000 19.2270000000
23 2 5.3400000000 15.4840000000 20.8910000000
24 2 18.8990000000 -0.6470000000 -1.9210000000
25 2 1.8270000000 11.4050000000 9.8580000000
26 2 7.4210000000 22.8810000000 13.0960000000
27 2 -2.9260000000 8.9010000000 24.2920000000
28 2 11.7950000000 16.9670000000 5.4500000000
29 2 2.9950000000 11.7900000000 21.0460000000
30 2 7.0300000000 20.2550000000 28.1040000000
31 2 11.8300000000 13.3230000000 17.4130000000
32 2 0.9400000000 7.8620000000 10.8230000000
33 2 1.0020000000 17.0990000000 10.1620000000
34 2 11.6660000000 18.9330000000 7.1710000000
35 2 3.5780000000 1.5930000000 10.1400000000
36 2 13.9450000000 12.8460000000 5.9570000000
37 2 -5.6740000000 6.8510000000 7.5570000000
38 2 6.0420000000 -8.1850000000 15.4820000000
39 2 -8.4790000000 10.4740000000 23.8000000000
40 2 -4.5070000000 18.5170000000 18.0840000000
41 2 9.7960000000 1.4100000000 9.5980000000
42 2 3.6550000000 21.8220000000 26.4200000000
43 2 -0.0660000000 5.3050000000 16.7330000000
44 2 0.3070000000 -0.7770000000 28.8790000000
45 2 13.6790000000 15.6040000000 25.7250000000
46 2 -4.9350000000 13.0040000000 16.0980000000
47 2 4.2010000000 4.8520000000 25.9250000000
48 2 2.1920000000 18.3480000000 15.9160000000
49 2 23.1920000000 20.5230000000 13.4960000000
50 2 -5.1310000000 10.4220000000 15.2790000000
51 2 6.6080000000 -6.0420000000 18.1260000000
52 2 -1.0540000000 4.4220000000 10.9510000000
53 2 -0.1900000000 2.3610000000 12.6630000000
54 2 2.2260000000 3.5000000000 12.8030000000
55 2 -2.7310000000 9.0160000000 12.8330000000
56 2 -0.2110000000 5.0520000000 13.0920000000
57 2 -2.3420000000 6.7790000000 13.9010000000
58 2 2.9700000000 5.8270000000 14.0530000000
59 2 1.6390000000 5.1810000000 11.2110000000
60 2 -0.4710000000 9.8180000000 14.1790000000
61 2 4.5610000000 4.5610000000 11.5690000000
62 2 1.9750000000 8.8220000000 13.3630000000
63 2 3.7200000000 6.9630000000 12.0610000000
64 2 -1.6540000000 7.1680000000 11.1260000000
65 2 -0.2510000000 7.6510000000 15.0890000000
66 2 -3.3340000000 4.7620000000 12.1780000000
67 2 4.8680000000 8.1800000000 14.2130000000
68 2 2.5950000000 8.1180000000 15.4580000000
69 2 0.7720000000 9.5170000000 16.8410000000
70 3 12.0970000000 10.3230000000 20.6100000000
71 3 13.0540000000 11.5190000000 20.3730000000
72 3 14.8340000000 1.9980000000 -20.3030000000
73 3 15.8310000000 0.9430000000 -19.6630000000
74 3 12.1560000000 10.0510000000 8.1750000000
75 3 12.6110000000 10.8010000000 9.5660000000
76 3 2.5050000000 10.9570000000 22.7600000000
77 3 1.5980000000 11.6870000000 23.8690000000
78 3 11.5120000000 7.2230000000 18.5570000000
79 3 10.0920000000 7.7180000000 18.3180000000
80 3 10.8670000000 -0.3070000000 23.5840000000
81 3 11.3550000000 0.8170000000 22.6150000000
82 3 7.1640000000 -0.6100000000 27.4380000000
83 3 8.1650000000 -0.7280000000 28.6310000000
84 3 7.9670000000 10.9050000000 10.6950000000
85 3 6.7620000000 9.9340000000 10.2990000000
86 3 16.7360000000 14.3300000000 26.0920000000
87 3 17.4390000000 13.7040000000 24.9260000000
88 3 6.3970000000 4.7830000000 5.7330000000
89 3 5.8050000000 4.3350000000 4.4010000000
90 3 5.3820000000 3.2000000000 8.4360000000
91 3 5.9320000000 1.8940000000 7.8110000000
92 3 6.1430000000 -2.5480000000 11.8330000000
93 3 6.2090000000 -2.8000000000 13.3370000000
94 3 11.6350000000 13.7720000000 19.3250000000
95 3 11.5320000000 14.0880000000 20.8670000000
96 3 6.8720000000 11.9460000000 26.1910000000
97 3 6.1260000000 12.7590000000 25.0470000000
98 3 7.4590000000 2.0990000000 5.6770000000
99 3 8.5680000000 1.3890000000 6.4910000000
100 3 9.7180000000 12.1840000000 18.3510000000
101 3 10.5220000000 11.4780000000 19.4570000000
102 3 6.0490000000 14.8390000000 20.6300000000
103 3 5.7670000000 16.2860000000 21.3030000000
104 3 19.3570000000 0.2380000000 -1.9090000000
105 3 19.2060000000 -1.0820000000 -2.7820000000
106 3 2.0220000000 12.2110000000 9.2910000000
107 3 0.9860000000 11.5380000000 10.3550000000
108 3 7.6000000000 22.5000000000 12.2110000000
109 3 7.8620000000 22.2780000000 13.7230000000
110 3 -3.2560000000 8.1790000000 24.9310000000
111 3 1.3230000000 10.2160000000 25.8430000000
112 3 11.3530000000 17.5760000000 4.7340000000
113 3 12.6180000000 16.6980000000 5.0160000000
114 3 3.9620000000 11.7840000000 21.0350000000
115 3 2.8300000000 11.5460000000 20.1350000000
116 3 6.2260000000 19.6840000000 28.2400000000
117 3 7.8130000000 19.6800000000 27.8160000000
118 3 12.2390000000 12.5140000000 17.0540000000
119 3 10.9710000000 13.4470000000 16.9800000000
120 3 1.2330000000 8.4690000000 10.0760000000
121 3 -0.0550000000 7.6640000000 10.6860000000
122 3 1.8730000000 16.5850000000 10.2480000000
123 3 0.2650000000 16.6860000000 9.6710000000
124 3 10.9790000000 18.6730000000 7.8450000000
125 3 11.8540000000 18.0930000000 6.5830000000
126 3 4.1330000000 1.6100000000 9.3080000000
127 3 4.1320000000 1.2410000000 10.9010000000
128 3 14.2850000000 13.0100000000 5.0360000000
129 3 13.0490000000 13.3540000000 5.9400000000
130 3 -4.9050000000 6.3570000000 8.0020000000
131 3 -6.4260000000 6.2340000000 7.8070000000
132 3 5.2230000000 -8.5870000000 15.8440000000
133 3 5.7260000000 -7.3280000000 15.1020000000
134 3 -7.6050000000 10.3460000000 24.0860000000
135 3 -8.8970000000 9.6060000000 23.5300000000
136 3 -4.5710000000 17.5220000000 18.2680000000
137 3 -4.0690000000 18.8470000000 18.9000000000
138 3 8.9930000000 1.0630000000 10.0820000000
139 3 10.5180000000 1.0150000000 10.1690000000
140 3 4.6010000000 22.1270000000 26.3880000000
141 3 3.7530000000 20.8400000000 26.2930000000
142 3 -0.0060000000 5.0030000000 17.6840000000
143 3 -0.9870000000 5.0080000000 16.4660000000
144 3 -0.2730000000 -0.1360000000 28.4520000000
145 3 1.2440000000 -0.5500000000 28.5780000000
146 3 14.1900000000 15.4620000000 24.8460000000
147 3 13.0050000000 14.7720000000 25.6760000000
148 3 -5.8210000000 13.1680000000 16.4290000000
149 3 -4.8740000000 12.0260000000 15.9120000000
150 3 4.2640000000 4.7360000000 26.9360000000
151 3 3.4550000000 4.2830000000 25.5510000000
152 3 1.9890000000 17.4230000000 15.5260000000
153 3 1.3680000000 18.6770000000 16.3530000000
154 3 22.4500000000 19.8850000000 13.2940000000
155 3 23.1740000000 20.6480000000 14.5290000000
156 3 -5.5320000000 10.0000000000 14.4780000000
157 3 -4.4240000000 9.7780000000 15.5290000000
158 3 6.8040000000 -6.8930000000 18.6060000000
159 3 7.1320000000 -6.1400000000 17.2580000000
160 3 -1.8030000000 3.9660000000 10.4450000000
161 3 -0.3510000000 1.5330000000 12.1770000000
162 3 2.4250000000 2.8770000000 13.5680000000
163 3 -3.6630000000 9.1950000000 13.0110000000
164 3 0.2460000000 5.4550000000 13.8600000000
165 3 -2.4780000000 6.1260000000 14.6380000000
166 3 2.6880000000 5.3750000000 14.8700000000
167 3 1.4090000000 6.0740000000 10.8910000000
168 3 -0.6500000000 10.7600000000 14.2430000000
169 3 4.3600000000 3.5960000000 11.5140000000
170 3 1.4770000000 8.6510000000 12.5010000000
171 3 3.5360000000 7.5300000000 11.3190000000
172 3 -2.0670000000 7.9470000000 11.6190000000
173 3 -0.0340000000 6.8720000000 15.6820000000
174 3 -3.9490000000 5.2190000000 12.8100000000
175 3 5.5170000000 8.1090000000 13.5200000000
176 3 2.9230000000 7.9660000000 16.3520000000
177 3 -0.1480000000 9.8600000000 16.9070000000
ITEM: TIMESTEP
1
ITEM: NUMBER OF ATOMS
177
ITEM: BOX BOUNDS pp pp pp
0 14.294261
0 14.294261
0 8.576556
ITEM: ATOMS id type x y z
1 1 0.4780000000 3.7970000000 11.8350000000
2 1 -1.8070000000 5.6440000000 12.2720000000
3 1 -1.8580000000 8.3850000000 14.3000000000
4 1 3.2000000000 7.6390000000 13.8580000000
5 1 3.0860000000 5.1660000000 12.3520000000
6 1 1.0560000000 9.0030000000 15.0260000000
7 2 12.2870000000 11.2170000000 20.0620000000
8 2 15.4470000000 1.7460000000 -19.4770000000
9 2 12.7520000000 10.6130000000 8.6040000000
10 2 2.0730000000 11.0070000000 23.5160000000
11 2 10.6170000000 7.1990000000 18.0070000000
12 2 11.5580000000 -0.2100000000 22.6290000000
13 2 7.5590000000 -0.0410000000 28.1720000000
14 2 7.0180000000 10.8820000000 10.4530000000
15 2 16.7470000000 13.6890000000 25.3980000000
16 2 6.7110000000 4.2200000000 5.0790000000
17 2 5.1680000000 2.2030000000 7.9480000000
18 2 5.8230000000 -2.1180000000 12.6620000000
19 2 11.7990000000 14.5640000000 20.1420000000
20 2 6.7980000000 12.7880000000 25.7400000000
21 2 7.7250000000 1.2860000000 5.9880000000
22 2 9.6850000000 11.6230000000 19.1110000000
23 2 5.3120000000 15.5030000000 20.9740000000
24 2 19.1340000000 -0.6440000000 -1.9530000000
25 2 1.8450000000 11.4980000000 9.6950000000
26 2 7.4080000000 22.8610000000 13.0220000000
27 2 -2.9910000000 8.8470000000 24.2300000000
28 2 11.7960000000 16.8840000000 5.3610000000
29 2 3.0010000000 11.8330000000 20.9920000000
30 2 7.1610000000 20.2970000000 28.0350000000
31 2 11.9240000000 13.3040000000 17.3890000000
32 2 0.9910000000 7.8430000000 10.7800000000
33 2 1.0740000000 17.1620000000 10.2900000000
34 2 11.6480000000 19.0020000000 7.2510000000
35 2 3.5020000000 1.4680000000 10.0070000000
36 2 13.9880000000 12.8800000000 6.0360000000
37 2 -5.8510000000 6.8520000000 7.5320000000
38 2 5.9230000000 -8.3740000000 15.5080000000
39 2 -8.4620000000 10.5450000000 23.7120000000
40 2 -4.6160000000 18.6050000000 17.8950000000
41 2 9.6430000000 1.3110000000 9.5650000000
42 2 3.7610000000 21.9290000000 26.4330000000
43 2 -0.1090000000 5.3010000000 16.7270000000
44 2 0.2790000000 -0.7740000000 28.7680000000
45 2 13.7870000000 15.7210000000 25.8450000000
46 2 -4.8870000000 12.9220000000 16.2240000000
47 2 4.2400000000 4.8350000000 25.8830000000
48 2 2.1550000000 18.2460000000 15.9640000000
49 2 23.1080000000 20.4080000000 13.4050000000
50 2 -5.1440000000 10.3780000000 15.2400000000
51 2 6.5870000000 -5.9400000000 18.1210000000
52 2 -1.1240000000 4.4270000000 10.9760000000
53 2 -0.1700000000 2.3460000000 12.6360000000
54 2 2.2450000000 3.5450000000 12.5440000000
55 2 -2.6410000000 9.0500000000 12.7350000000
56 2 -0.3300000000 4.9420000000 13.1640000000
57 2 -2.2510000000 6.6590000000 13.7960000000
58 2 3.0630000000 5.7850000000 14.0950000000
59 2 1.7360000000 5.3040000000 11.1990000000
60 2 -0.5500000000 9.7510000000 14.2010000000
61 2 4.6140000000 4.4640000000 11.5850000000
62 2 1.8590000000 8.7550000000 13.2470000000
63 2 3.6190000000 6.9460000000 12.1540000000
64 2 -1.6670000000 7.1020000000 11.2150000000
65 2 -0.1930000000 7.6770000000 15.1330000000
66 2 -3.3320000000 4.7950000000 12.3010000000
67 2 4.9500000000 8.0870000000 14.2460000000
68 2 2.5870000000 8.1350000000 15.5520000000
69 2 0.8040000000 9.5150000000 16.9620000000
70 3 12.2050000000 10.3890000000 20.6170000000
71 3 13.0030000000 11.8020000000 20.4830000000
72 3 14.9770000000 1.7110000000 -20.4110000000
73 3 15.6710000000 0.8060000000 -19.1960000000
74 3 12.2250000000 10.0440000000 7.9710000000
75 3 12.3860000000 10.5040000000 9.4690000000
76 3 2.2180000000 11.2000000000 22.5590000000
77 3 1.4080000000 11.6670000000 23.7130000000
78 3 11.4070000000 6.9020000000 18.5470000000
79 3 10.3180000000 8.0270000000 18.4870000000
80 3 10.7090000000 -0.5440000000 22.8850000000
81 3 11.6340000000 0.6120000000 23.1680000000
82 3 7.0000000000 -0.5470000000 27.5430000000
83 3 7.8970000000 -0.6310000000 28.8630000000
84 3 7.9960000000 10.9750000000 10.5840000000
85 3 6.9200000000 9.9490000000 10.1910000000
86 3 17.1540000000 14.4040000000 25.9450000000
87 3 17.4420000000 13.5860000000 24.6320000000
88 3 6.3210000000 4.7400000000 5.8390000000
89 3 6.0910000000 4.3830000000 4.3200000000
90 3 5.0660000000 3.1840000000 8.0430000000
91 3 6.1500000000 2.0850000000 7.8980000000
92 3 6.4110000000 -2.6520000000 12.0640000000
93 3 5.8100000000 -2.6140000000 13.5350000000
94 3 11.7920000000 13.7860000000 19.5640000000
95 3 11.6610000000 14.2810000000 21.0390000000
96 3 6.5780000000 12.0020000000 26.3540000000
97 3 6.0280000000 12.8830000000 25.0800000000
98 3 7.9080000000 2.2200000000 5.7180000000
99 3 8.5840000000 0.7970000000 6.0960000000
100 3 9.7730000000 12.2220000000 18.3360000000
101 3 10.5350000000 11.7810000000 19.5520000000
102 3 6.1100000000 14.9350000000 20.7070000000
103 3 5.6350000000 16.2920000000 21.3910000000
104 3 19.4110000000 0.2440000000 -2.1490000000
105 3 18.9740000000 -1.0490000000 -2.7880000000
106 3 2.3880000000 12.0430000000 9.1270000000
107 3 1.1150000000 12.0680000000 9.9200000000
108 3 7.8280000000 22.6450000000 12.1920000000
109 3 7.6530000000 22.0960000000 13.5800000000
110 3 -3.0580000000 8.2410000000 24.9350000000
111 3 1.4010000000 10.1100000000 25.9540000000
112 3 11.1750000000 17.3310000000 4.7710000000
113 3 12.6460000000 17.1280000000 5.0170000000
114 3 3.9720000000 11.9520000000 20.8250000000
115 3 2.5840000000 11.4190000000 20.1810000000
116 3 6.3050000000 19.9980000000 28.3570000000
117 3 7.6210000000 19.4750000000 27.8960000000
118 3 12.2450000000 12.3960000000 17.1710000000
119 3 11.0180000000 13.4740000000 17.0640000000
120 3 0.9180000000 8.0510000000 9.8410000000
121 3 -0.0210000000 7.6970000000 11.0400000000
122 3 2.0030000000 17.1590000000 10.1900000000
123 3 0.5760000000 16.4420000000 9.7840000000
124 3 11.0280000000 18.9180000000 8.0240000000
125 3 11.4070000000 18.2290000000 6.6750000000
126 3 4.2130000000 1.7460000000 9.4340000000
127 3 3.8930000000 1.4210000000 10.8790000000
128 3 14.2340000000 13.2340000000 5.1780000000
129 3 13.0860000000 13.2560000000 6.2250000000
130 3 -5.3580000000 6.6120000000 8.3120000000
131 3 -6.5610000000 6.2190000000 7.5380000000
132 3 5.4160000000 -8.6260000000 16.3310000000
133 3 5.4280000000 -7.6120000000 15.0900000000
134 3 -7.5310000000 10.3530000000 24.0220000000
135 3 -8.8540000000 9.6530000000 23.4280000000
136 3 -4.6640000000 17.6530000000 18.0410000000
137 3 -4.2690000000 18.9590000000 18.7850000000
138 3 8.9510000000 0.7750000000 9.9700000000
139 3 10.2760000000 1.2110000000 10.2730000000
140 3 4.6950000000 22.1380000000 26.5680000000
141 3 3.9820000000 21.0350000000 26.0830000000
142 3 -0.3950000000 5.3940000000 17.6350000000
143 3 -0.9580000000 4.8660000000 16.2950000000
144 3 -0.5040000000 -0.3220000000 28.3920000000
145 3 0.9670000000 -0.1000000000 28.6560000000
146 3 14.1700000000 15.9060000000 25.0090000000
147 3 13.3410000000 14.9500000000 25.6560000000
148 3 -5.8080000000 13.0840000000 16.4940000000
149 3 -4.7730000000 12.1560000000 15.6270000000
150 3 4.2370000000 4.6320000000 26.8470000000
151 3 3.3380000000 4.5350000000 25.4240000000
152 3 1.9110000000 17.4070000000 15.5540000000
153 3 1.3260000000 18.6600000000 16.1580000000
154 3 22.3520000000 19.8180000000 13.3030000000
155 3 23.3050000000 20.4900000000 14.3120000000
156 3 -5.6480000000 10.1120000000 14.4720000000
157 3 -4.3960000000 9.7550000000 15.2580000000
158 3 6.9260000000 -6.7500000000 18.5170000000
159 3 6.8970000000 -6.0790000000 17.2480000000
160 3 -1.6930000000 3.7030000000 10.8260000000
161 3 -0.9110000000 1.8830000000 12.2170000000
162 3 2.2070000000 2.9900000000 13.2970000000
163 3 -3.6080000000 8.8290000000 12.8250000000
164 3 0.1100000000 5.6390000000 13.6630000000
165 3 -2.5220000000 6.0850000000 14.5340000000
166 3 2.7660000000 5.2900000000 14.8320000000
167 3 1.4320000000 6.2250000000 11.0130000000
168 3 -0.7320000000 10.7300000000 14.1770000000
169 3 4.6670000000 3.5050000000 11.4600000000
170 3 1.5280000000 8.6320000000 12.2990000000
171 3 3.3370000000 7.3370000000 11.2780000000
172 3 -2.0740000000 7.8320000000 11.6900000000
173 3 -0.1440000000 6.9840000000 15.8250000000
174 3 -4.1050000000 5.2430000000 12.7040000000
175 3 5.4390000000 8.2240000000 13.3860000000
176 3 3.1340000000 8.1600000000 16.4030000000
177 3 -0.0790000000 9.9140000000 17.1200000000
ITEM: TIMESTEP
2
ITEM: NUMBER OF ATOMS
177
ITEM: BOX BOUNDS pp pp pp
0 14.294261
0 14.294261
0 8.576556
ITEM: ATOMS id type x y z
1 1 0.5060000000 3.8620000000 11.8770000000
2 1 -1.8480000000 5.5390000000 12.3150000000
3 1 -1.7790000000 8.3140000000 14.2530000000
4 1 3.2930000000 7.5900000000 13.8590000000
5 1 3.1230000000 5.1590000000 12.2530000000
6 1 1.0570000000 9.1670000000 15.0180000000
7 2 12.2650000000 11.3190000000 20.0510000000
8 2 15.4320000000 1.6110000000 -19.4600000000
9 2 12.6580000000 10.4800000000 8.6860000000
10 2 1.9380000000 11.0570000000 23.4410000000
11 2 10.5430000000 7.3390000000 18.0370000000
12 2 11.5670000000 -0.2380000000 22.7370000000
13 2 7.5570000000 0.0450000000 28.1130000000
14 2 7.0700000000 10.8280000000 10.5190000000
15 2 16.9650000000 13.6630000000 25.3520000000
16 2 6.8250000000 4.2000000000 5.1660000000
17 2 5.3360000000 2.1030000000 7.8850000000
18 2 5.7440000000 -2.1700000000 12.7500000000
19 2 11.8700000000 14.7150000000 20.0850000000
20 2 6.7590000000 12.8730000000 25.7210000000
21 2 7.6990000000 1.3270000000 5.9350000000
22 2 9.7370000000 11.4950000000 18.9970000000
23 2 5.2520000000 15.6080000000 21.0800000000
24 2 19.3070000000 -0.5820000000 -2.0210000000
25 2 1.9010000000 11.6160000000 9.5620000000
26 2 7.4830000000 22.8270000000 12.9620000000
27 2 -2.8860000000 8.7870000000 24.1610000000
28 2 11.6820000000 16.8570000000 5.3260000000
29 2 2.9900000000 11.9050000000 21.0310000000
30 2 7.2130000000 20.3570000000 27.9840000000
31 2 12.0730000000 13.3880000000 17.4380000000
32 2 0.8190000000 7.8540000000 10.7600000000
33 2 1.1580000000 17.1700000000 10.2800000000
34 2 11.6220000000 19.1000000000 7.3220000000
35 2 3.4250000000 1.3900000000 9.9300000000
36 2 14.0980000000 12.8720000000 6.0560000000
37 2 -6.0100000000 6.9230000000 7.5540000000
38 2 5.8690000000 -8.5330000000 15.6010000000
39 2 -8.4510000000 10.6480000000 23.6300000000
40 2 -4.7140000000 18.6760000000 17.8040000000
41 2 9.5290000000 1.2670000000 9.5600000000
42 2 3.8880000000 22.0890000000 26.4450000000
43 2 -0.2190000000 5.2710000000 16.7300000000
44 2 0.2310000000 -0.8000000000 28.6270000000
45 2 13.8590000000 15.8580000000 25.9340000000
46 2 -4.8420000000 12.8400000000 16.2500000000
47 2 4.2350000000 4.8880000000 25.9930000000
48 2 2.0760000000 18.2510000000 16.0090000000
49 2 23.0640000000 20.2920000000 13.3490000000
50 2 -5.2010000000 10.3280000000 15.1380000000
51 2 6.5960000000 -5.9040000000 18.0670000000
52 2 -1.0950000000 4.3830000000 10.8660000000
53 2 -0.2060000000 2.1880000000 12.6070000000
54 2 2.2230000000 3.4980000000 12.5690000000
55 2 -2.5840000000 9.0870000000 12.7950000000
56 2 -0.3560000000 4.9220000000 13.2350000000
57 2 -2.2350000000 6.6280000000 13.8190000000
58 2 3.0960000000 5.6850000000 14.0880000000
59 2 1.6260000000 5.3810000000 11.1540000000
60 2 -0.5510000000 9.7630000000 14.3200000000
61 2 4.6440000000 4.4260000000 11.6330000000
62 2 1.8140000000 8.5610000000 13.4050000000
63 2 3.5430000000 6.9890000000 12.1510000000
64 2 -1.5660000000 6.9660000000 11.2640000000
65 2 -0.1750000000 7.6770000000 15.1580000000
66 2 -3.4100000000 4.6230000000 12.2640000000
67 2 4.9150000000 8.1120000000 14.2500000000
68 2 2.4900000000 8.1440000000 15.4470000000
69 2 0.7780000000 9.5640000000 16.9650000000
70 3 12.0260000000 10.5180000000 20.6370000000
71 3 13.0270000000 11.7010000000 20.4680000000
72 3 14.8420000000 1.6860000000 -20.3460000000
73 3 15.4270000000 0.6870000000 -19.2190000000
74 3 12.0310000000 9.8510000000 8.2280000000
75 3 12.5110000000 10.4770000000 9.6850000000
76 3 2.4670000000 11.1660000000 22.5410000000
77 3 1.4090000000 11.8960000000 23.3940000000
78 3 11.3350000000 7.1340000000 18.5250000000
79 3 10.0980000000 8.1000000000 18.4010000000
80 3 10.7580000000 -0.6010000000 23.2040000000
81 3 11.3820000000 0.6550000000 22.5140000000
82 3 7.3160000000 -0.3160000000 27.2350000000
83 3 7.4480000000 -0.6870000000 28.7420000000
84 3 8.0520000000 10.9230000000 10.4640000000
85 3 6.9760000000 9.9390000000 10.1520000000
86 3 17.1700000000 14.2610000000 26.1190000000
87 3 17.7910000000 13.6150000000 24.8860000000
88 3 6.4240000000 4.8040000000 5.8330000000
89 3 6.2520000000 4.2440000000 4.3610000000
90 3 4.8800000000 2.6130000000 7.1650000000
91 3 6.2420000000 2.0820000000 7.5880000000
92 3 5.8390000000 -2.6650000000 11.9270000000
93 3 5.9440000000 -2.8160000000 13.4790000000
94 3 11.5150000000 14.0830000000 19.4110000000
95 3 11.4830000000 14.3220000000 20.9150000000
96 3 6.7140000000 11.9600000000 25.9730000000
97 3 6.1490000000 12.9790000000 24.9980000000
98 3 8.2500000000 2.0850000000 5.7150000000
99 3 8.2550000000 0.6420000000 6.2670000000
100 3 9.9150000000 11.9560000000 18.1590000000
101 3 10.6650000000 11.5220000000 19.3570000000
102 3 5.8940000000 15.2750000000 20.4920000000
103 3 5.8530000000 15.8480000000 21.8340000000
104 3 19.5400000000 0.3480000000 -2.2640000000
105 3 19.3450000000 -1.1330000000 -2.8860000000
106 3 2.1760000000 12.3710000000 8.9540000000
107 3 1.1580000000 12.0410000000 10.0780000000
108 3 7.4080000000 22.8650000000 11.9780000000
109 3 7.9330000000 21.9360000000 13.0710000000
110 3 -3.3450000000 7.9650000000 24.5780000000
111 3 1.2030000000 10.3600000000 25.8290000000
112 3 11.4150000000 17.5250000000 4.6850000000
113 3 12.6910000000 16.7310000000 5.1920000000
114 3 3.9930000000 11.9410000000 21.1550000000
115 3 2.7170000000 11.6550000000 20.1500000000
116 3 6.4280000000 19.7270000000 28.0430000000
117 3 7.7790000000 19.8420000000 27.3460000000
118 3 12.3830000000 12.4800000000 17.3710000000
119 3 11.2640000000 13.5160000000 16.9060000000
120 3 0.9850000000 8.4700000000 10.0190000000
121 3 -0.1640000000 7.5370000000 10.6350000000
122 3 1.9090000000 16.4650000000 10.3350000000
123 3 0.4650000000 16.6670000000 9.8030000000
124 3 10.8170000000 19.1220000000 7.8700000000
125 3 11.6020000000 18.1970000000 6.9890000000
126 3 4.0990000000 1.7120000000 9.2470000000
127 3 3.9650000000 1.0580000000 10.7030000000
128 3 14.2180000000 13.1130000000 5.1090000000
129 3 13.1990000000 13.1120000000 6.2760000000
130 3 -5.5910000000 6.5160000000 8.3550000000
131 3 -6.8760000000 6.4520000000 7.4660000000
132 3 5.1810000000 -8.8880000000 16.1780000000
133 3 5.4160000000 -7.7770000000 15.1790000000
134 3 -7.5320000000 10.5200000000 23.9390000000
135 3 -8.7200000000 9.7060000000 23.4020000000
136 3 -4.8650000000 17.7020000000 17.6820000000
137 3 -4.2660000000 18.7130000000 18.6360000000
138 3 8.8030000000 0.9580000000 10.2050000000
139 3 10.2980000000 1.2090000000 10.2110000000
140 3 4.8770000000 22.3270000000 26.3030000000
141 3 4.0960000000 21.1140000000 26.4800000000
142 3 -0.2170000000 5.1360000000 17.7230000000
143 3 -1.1550000000 5.0990000000 16.5140000000
144 3 -0.7040000000 -0.4030000000 28.6220000000
145 3 0.8600000000 -0.1400000000 28.9930000000
146 3 13.8450000000 15.8790000000 24.9220000000
147 3 13.4380000000 14.9400000000 26.1960000000
148 3 -5.5820000000 13.2730000000 16.7500000000
149 3 -4.9360000000 11.9260000000 15.9770000000
150 3 4.5230000000 4.6020000000 26.8810000000
151 3 3.4380000000 4.3230000000 25.7570000000
152 3 1.6830000000 17.3820000000 15.6970000000
153 3 1.2530000000 18.6160000000 16.4860000000
154 3 22.3260000000 19.6160000000 13.3770000000
155 3 23.2780000000 20.6060000000 14.2970000000
156 3 -5.4480000000 9.9830000000 14.2460000000
157 3 -4.3930000000 9.7880000000 15.3450000000
158 3 6.7400000000 -6.7920000000 18.4850000000
159 3 7.1970000000 -5.9970000000 17.2370000000
160 3 -1.7290000000 3.7410000000 10.4620000000
161 3 -0.7110000000 1.6990000000 11.9430000000
162 3 2.3480000000 2.7600000000 13.2210000000
163 3 -3.3730000000 8.7380000000 12.4190000000
164 3 0.1260000000 5.4440000000 13.8970000000
165 3 -2.2790000000 6.0340000000 14.5920000000
166 3 2.5770000000 5.0800000000 14.7150000000
167 3 1.4120000000 6.2990000000 10.8320000000
168 3 -0.6320000000 10.6680000000 14.0680000000
169 3 4.5800000000 3.4210000000 11.6930000000
170 3 1.3650000000 8.4420000000 12.5960000000
171 3 3.5530000000 7.4280000000 11.3080000000
172 3 -1.7410000000 7.8410000000 11.7130000000
173 3 -0.1430000000 6.8430000000 15.6630000000
174 3 -4.1820000000 5.1200000000 12.5950000000
175 3 5.6310000000 7.9910000000 13.6280000000
176 3 2.9550000000 8.0210000000 16.3090000000
177 3 -0.1660000000 9.7300000000 17.1080000000
ITEM: TIMESTEP
3
ITEM: NUMBER OF ATOMS
177
ITEM: BOX BOUNDS pp pp pp
0 14.294261
0 14.294261
0 8.576556
ITEM: ATOMS id type x y z
1 1 0.5360000000 3.8720000000 11.8810000000
2 1 -1.8890000000 5.4290000000 12.2500000000
3 1 -1.6470000000 8.3600000000 14.3470000000
4 1 3.2820000000 7.4950000000 13.9260000000
5 1 3.1010000000 5.1680000000 12.1870000000
6 1 1.0240000000 9.1430000000 15.0220000000
7 2 12.2530000000 11.3050000000 20.1040000000
8 2 15.4140000000 1.4510000000 -19.4690000000
9 2 12.5520000000 10.3400000000 8.8250000000
10 2 1.8060000000 10.9100000000 23.3300000000
11 2 10.4700000000 7.4740000000 18.0290000000
12 2 11.4410000000 -0.2430000000 22.8830000000
13 2 7.3960000000 0.0590000000 28.0220000000
14 2 7.0820000000 10.8590000000 10.5800000000
15 2 17.1570000000 13.6980000000 25.2320000000
16 2 6.8820000000 4.1050000000 5.1820000000
17 2 5.4860000000 2.0100000000 7.7080000000
18 2 5.7180000000 -2.2790000000 12.7910000000
19 2 11.9680000000 14.7760000000 19.8860000000
20 2 6.8260000000 13.0150000000 25.7320000000
21 2 7.6200000000 1.3200000000 5.9040000000
22 2 9.7880000000 11.3770000000 18.8370000000
23 2 5.2570000000 15.7390000000 21.1510000000
24 2 19.4400000000 -0.5610000000 -2.1130000000
25 2 1.8710000000 11.6820000000 9.5080000000
26 2 7.6180000000 22.8010000000 12.8500000000
27 2 -2.8640000000 8.7520000000 24.1670000000
28 2 11.5650000000 16.8300000000 5.3350000000
29 2 2.9660000000 12.0030000000 21.0720000000
30 2 7.2260000000 20.3940000000 27.8390000000
31 2 12.2510000000 13.4940000000 17.4810000000
32 2 0.6810000000 7.9550000000 10.7190000000
33 2 1.2330000000 17.1600000000 10.1740000000
34 2 11.5410000000 19.1310000000 7.3450000000
35 2 3.4530000000 1.3440000000 9.9060000000
36 2 14.2310000000 12.8830000000 5.9990000000
37 2 -6.1430000000 7.0000000000 7.6280000000
38 2 5.8290000000 -8.6300000000 15.6590000000
39 2 -8.4150000000 10.7010000000 23.5480000000
40 2 -4.8300000000 18.6850000000 17.7870000000
41 2 9.4750000000 1.3150000000 9.5490000000
42 2 3.9850000000 22.2010000000 26.4370000000
43 2 -0.2690000000 5.3200000000 16.8450000000
44 2 0.1710000000 -0.8570000000 28.5600000000
45 2 13.7690000000 15.9130000000 25.9330000000
46 2 -4.7620000000 12.7890000000 16.2170000000
47 2 4.1640000000 4.8860000000 26.1900000000
48 2 1.9900000000 18.2870000000 16.0530000000
49 2 23.0460000000 20.2850000000 13.3800000000
50 2 -5.2600000000 10.2570000000 15.0160000000
51 2 6.6840000000 -5.9110000000 17.9670000000
52 2 -0.9520000000 4.3840000000 10.9440000000
53 2 -0.1120000000 2.1960000000 12.5590000000
54 2 2.1790000000 3.5500000000 12.7210000000
55 2 -2.4130000000 9.0650000000 12.7790000000
56 2 -0.3450000000 4.8200000000 13.1700000000
57 2 -2.3180000000 6.5830000000 13.8650000000
58 2 3.0910000000 5.6850000000 13.9290000000
59 2 1.5650000000 5.2490000000 11.2700000000
60 2 -0.5170000000 9.9180000000 14.3560000000
61 2 4.7030000000 4.4100000000 11.6890000000
62 2 1.7530000000 8.5380000000 13.3340000000
63 2 3.5580000000 6.9470000000 12.0010000000
64 2 -1.5590000000 6.8630000000 11.2190000000
65 2 -0.1790000000 7.7180000000 15.1910000000
66 2 -3.3940000000 4.4350000000 12.1200000000
67 2 4.9570000000 8.1470000000 14.2850000000
68 2 2.6000000000 8.0970000000 15.5570000000
69 2 0.7700000000 9.6920000000 16.8370000000
70 3 12.2470000000 10.4850000000 20.7070000000
71 3 13.1200000000 11.7550000000 20.0900000000
72 3 14.7620000000 1.5500000000 -20.3020000000
73 3 15.7700000000 0.5300000000 -19.4160000000
74 3 12.0760000000 9.7590000000 8.1460000000
75 3 12.1680000000 10.2750000000 9.7050000000
76 3 2.1570000000 11.3240000000 22.4510000000
77 3 1.0830000000 11.5380000000 23.6570000000
78 3 11.2130000000 7.2820000000 18.6740000000
79 3 9.9630000000 8.2480000000 18.2610000000
80 3 10.9020000000 -0.6720000000 23.5320000000
81 3 11.6150000000 0.7120000000 23.1590000000
82 3 7.0760000000 -0.4280000000 27.2320000000
83 3 7.5260000000 -0.5980000000 28.7260000000
84 3 8.0400000000 10.8640000000 10.6900000000
85 3 6.9820000000 9.9300000000 10.1470000000
86 3 17.3310000000 14.4630000000 25.7700000000
87 3 18.0070000000 13.5320000000 24.6990000000
88 3 6.5280000000 4.5240000000 5.9720000000
89 3 6.1450000000 4.1540000000 4.5620000000
90 3 5.0520000000 2.6620000000 7.1860000000
91 3 6.3960000000 1.9670000000 7.2710000000
92 3 6.3880000000 -2.5610000000 12.1190000000
93 3 5.8170000000 -2.9010000000 13.5790000000
94 3 11.9740000000 14.2530000000 19.0730000000
95 3 11.5320000000 14.2160000000 20.5520000000
96 3 6.5700000000 12.1970000000 26.2460000000
97 3 6.1460000000 13.0660000000 25.0020000000
98 3 8.2390000000 2.0530000000 5.6720000000
99 3 8.1920000000 0.6620000000 6.4300000000
100 3 9.9660000000 11.6870000000 17.9290000000
101 3 10.5680000000 11.5880000000 19.3700000000
102 3 5.8540000000 15.2420000000 20.4410000000
103 3 5.9760000000 15.9670000000 21.7560000000
104 3 19.5490000000 0.3770000000 -1.9740000000
105 3 19.7840000000 -0.8060000000 -2.9520000000
106 3 2.3600000000 12.4120000000 9.0170000000
107 3 1.3310000000 12.2260000000 10.0680000000