-684176.505 
-684177.503 
-684196.657 
-684173.227 
-684175.090 
-684168.720 
-684169.034 
-684176.490 
-684164.513 
-684167.901 
-684156.975 
-684165.464 
-684165.053 
-684165.161 
-684165.867 
-684173.129 
-684180.223 
-684171.793 
-684174.678 
-684177.715 
