ITEM: TIMESTEP
0
ITEM: NUMBER OF ATOMS
177
ITEM: BOX BOUNDS pp pp pp
0 14.294261
0 14.294261
0 8.576556
ITEM: ATOMS id type x y z
1 1 0.3730000000 3.8860000000 11.8880000000
2 1 -1.9850000000 5.6790000000 12.3180000000
3 1 -1.9700000000 8.4250000000 14.2480000000
4 1 3.1050000000 7.7050000000 13.8230000000
5 1 2.9850000000 5.2120000000 12.3040000000
6 1 0.9280000000 9.1640000000 15.0250000000
7 2 12.2030000000 11.2410000000 20.0310000000
8 2 15.3240000000 1.7710000000 -19.4690000000
9 2 12.5880000000 10.6290000000 8.6350000000
10 2 1.8980000000 11.1250000000 23.4430000000
11 2 10.4600000000 7.3420000000 18.0030000000
12 2 11.4590000000 -0.1520000000 22.6710000000
13 2 7.4860000000 0.0350000000 28.1500000000
14 2 6.9110000000 10.9230000000 10.4710000000
15 2 16.7240000000 13.7300000000 25.4030000000
16 2 6.6400000000 4.1950000000 5.1230000000
17 2 5.1400000000 2.2310000000 7.9470000000
18 2 5.6580000000 -2.0490000000 12.6320000000
19 2 11.6960000000 14.7120000000 20.1360000000
20 2 6.6520000000 12.9080000000 25.7520000000
21 2 7.5520000000 1.3620000000 5.9660000000
22 2 9.6140000000 11.6440000000 19.0650000000
23 2 5.1480000000 15.6030000000 21.0300000000
24 2 19.1070000000 -0.5740000000 -1.9900000000
25 2 1.7570000000 11.6260000000 9.6150000000
26 2 7.3180000000 22.9410000000 12.9920000000
27 2 -3.0970000000 8.8760000000 24.1840000000
28 2 11.6140000000 16.9270000000 5.3250000000
29 2 2.8780000000 11.7910000000 21.0220000000
30 2 7.0570000000 20.3950000000 28.0210000000
31 2 11.8750000000 13.4150000000 17.4060000000
32 2 0.8090000000 7.9350000000 10.7870000000
33 2 0.9900000000 17.2600000000 10.1760000000
34 2 11.5160000000 19.0910000000 7.3020000000
35 2 3.3360000000 1.4820000000 9.9740000000
36 2 13.9200000000 12.9350000000 6.0530000000
37 2 -6.0460000000 6.8550000000 7.5560000000
38 2 5.7570000000 -8.4220000000 15.4940000000
39 2 -8.5790000000 10.6830000000 23.7190000000
40 2 -4.8160000000 18.7000000000 17.8310000000
41 2 9.4490000000 1.3460000000 9.5490000000
42 2 3.7040000000 22.0400000000 26.4450000000
43 2 -0.3030000000 5.3680000000 16.7350000000
44 2 0.1230000000 -0.7310000000 28.6790000000
45 2 13.6770000000 15.8380000000 25.8820000000
46 2 -4.9760000000 12.9820000000 16.2590000000
47 2 4.1010000000 4.8970000000 25.8850000000
48 2 1.9590000000 18.3320000000 15.9710000000
49 2 22.9570000000 20.4220000000 13.3460000000
50 2 -5.2780000000 10.4540000000 15.2130000000
51 2 6.4670000000 -5.8560000000 18.0970000000
52 2 -1.2450000000 4.4880000000 10.9180000000
53 2 -0.3100000000 2.3390000000 12.6060000000
54 2 2.0790000000 3.5940000000 12.4970000000
55 2 -2.7450000000 9.1750000000 12.7500000000
56 2 -0.4910000000 5.0340000000 13.2620000000
57 2 -2.3650000000 6.6820000000 13.7510000000
58 2 2.9170000000 5.8050000000 14.1270000000
59 2 1.5430000000 5.4280000000 11.1690000000
60 2 -0.6760000000 9.8080000000 14.2660000000
61 2 4.5150000000 4.5010000000 11.6140000000
62 2 1.7200000000 8.7420000000 13.3100000000
63 2 3.4190000000 7.0150000000 12.1730000000
64 2 -1.7360000000 7.1450000000 11.2850000000
65 2 -0.3070000000 7.7410000000 15.1510000000
66 2 -3.4700000000 4.8340000000 12.2930000000
67 2 4.7920000000 8.1110000000 14.2540000000
68 2 2.3750000000 8.2140000000 15.5070000000
69 2 0.6640000000 9.5940000000 16.9530000000
70 3 11.8920000000 10.4700000000 20.6070000000
71 3 12.8320000000 11.7760000000 20.5420000000
72 3 14.6920000000 1.7840000000 -20.2880000000
73 3 15.4450000000 0.8580000000 -19.1150000000
74 3 12.0800000000 10.0150000000 8.0390000000
75 3 12.2110000000 10.5290000000 9.4830000000
76 3 2.3250000000 11.3550000000 22.5810000000
77 3 1.1190000000 11.6210000000 23.6010000000
78 3 11.3290000000 7.1800000000 18.4700000000
79 3 10.2050000000 8.1530000000 18.4640000000
80 3 10.5810000000 -0.4250000000 22.8890000000
81 3 11.5200000000 0.8010000000 22.8990000000
82 3 6.9900000000 -0.4130000000 27.4140000000
83 3 7.4940000000 -0.6920000000 28.8010000000
84 3 7.8710000000 11.0550000000 10.7030000000
85 3 6.7400000000 10.0090000000 10.2270000000
86 3 17.0520000000 14.5030000000 25.9490000000
87 3 17.3730000000 13.6380000000 24.6060000000
88 3 6.1520000000 4.7310000000 5.8110000000
89 3 5.9880000000 4.2450000000 4.3390000000
90 3 4.7970000000 2.9980000000 7.5210000000
91 3 6.1360000000 2.2640000000 7.7640000000
92 3 6.1310000000 -2.6250000000 11.9620000000
93 3 5.8170000000 -2.5450000000 13.4890000000
94 3 11.4350000000 13.9440000000 19.5640000000
95 3 11.6730000000 14.4410000000 21.0420000000
96 3 6.3960000000 12.0490000000 26.2080000000
97 3 6.0090000000 13.0880000000 24.9860000000
98 3 7.9820000000 2.2270000000 5.7170000000
99 3 8.3540000000 0.7280000000 6.1030000000
100 3 9.6820000000 12.1670000000 18.2550000000
101 3 10.4590000000 11.5870000000 19.5530000000
102 3 5.9220000000 15.1950000000 20.5690000000
103 3 5.6230000000 16.1690000000 21.6620000000
104 3 19.2890000000 0.3180000000 -2.2730000000
105 3 18.8740000000 -0.9800000000 -2.7870000000
106 3 2.2920000000 12.2940000000 9.1670000000
107 3 1.0440000000 12.1940000000 9.9220000000
108 3 7.5990000000 22.7500000000 12.0890000000
109 3 7.6710000000 22.1280000000 13.4400000000
110 3 -3.4910000000 8.3050000000 24.8370000000
111 3 1.1900000000 10.2980000000 25.9460000000
112 3 11.2530000000 17.6310000000 4.7540000000
113 3 12.5640000000 16.9610000000 5.1110000000
114 3 3.8320000000 12.0390000000 20.8400000000
115 3 2.5250000000 11.4690000000 20.1270000000
116 3 6.1650000000 20.0950000000 28.2130000000
117 3 7.5750000000 19.6350000000 27.6420000000
118 3 12.0320000000 12.4600000000 17.2590000000
119 3 11.0350000000 13.4890000000 16.8720000000
120 3 0.8640000000 8.3570000000 9.9580000000
121 3 -0.2070000000 7.6660000000 10.9370000000
122 3 1.9110000000 17.0020000000 10.1370000000
123 3 0.5520000000 16.5820000000 9.5800000000
124 3 10.8410000000 19.2180000000 8.0180000000
125 3 11.3810000000 18.2460000000 6.8640000000
126 3 3.9530000000 1.7720000000 9.3040000000
127 3 3.8890000000 1.3960000000 10.7660000000
128 3 14.0730000000 13.3170000000 5.1750000000
129 3 13.0310000000 13.2110000000 6.2380000000
130 3 -5.6940000000 6.6940000000 8.4530000000
131 3 -6.9070000000 6.4770000000 7.4420000000
132 3 5.1250000000 -8.6510000000 16.2170000000
133 3 5.5230000000 -7.5410000000 15.0740000000
134 3 -7.6740000000 10.5420000000 23.9840000000
135 3 -8.9050000000 9.7640000000 23.4350000000
136 3 -4.8810000000 17.7410000000 17.7870000000
137 3 -4.2790000000 18.8700000000 18.6360000000
138 3 8.6800000000 0.8720000000 9.9050000000
139 3 10.1270000000 1.3190000000 10.1960000000
140 3 4.5320000000 22.5260000000 26.4970000000
141 3 3.7090000000 21.0880000000 26.2210000000
142 3 -0.4560000000 5.4260000000 17.6830000000
143 3 -1.1510000000 4.9000000000 16.3560000000
144 3 -0.7690000000 -0.2750000000 28.6440000000
145 3 0.7260000000 0.0810000000 28.8690000000
146 3 13.8910000000 16.1460000000 24.9990000000
147 3 13.2870000000 15.0330000000 25.8790000000
148 3 -5.9180000000 13.1440000000 16.5680000000
149 3 -5.2230000000 12.0560000000 15.9690000000
150 3 4.0800000000 4.7080000000 26.8470000000
151 3 3.2200000000 4.4570000000 25.5030000000
152 3 1.6810000000 17.5180000000 15.5430000000
153 3 1.1940000000 18.7230000000 16.3930000000
154 3 22.4060000000 19.6250000000 13.4710000000
155 3 23.1910000000 20.5460000000 14.2410000000
156 3 -5.7010000000 10.2180000000 14.3750000000
157 3 -4.4840000000 9.8850000000 15.3070000000
158 3 6.7760000000 -6.5920000000 18.6340000000
159 3 6.7570000000 -6.0120000000 17.2230000000
160 3 -1.8800000000 3.7780000000 10.6910000000
161 3 -1.0400000000 1.9180000000 12.1050000000
162 3 2.3510000000 3.0830000000 13.2840000000
163 3 -3.6190000000 8.6930000000 12.6830000000
164 3 -0.1440000000 5.7160000000 13.8720000000
165 3 -2.5880000000 6.1200000000 14.5180000000
166 3 2.6420000000 5.3350000000 14.9000000000
167 3 1.2700000000 6.3700000000 11.0110000000
168 3 -1.0030000000 10.7270000000 14.0870000000
169 3 4.4140000000 3.5920000000 11.5980000000
170 3 1.3230000000 8.6970000000 12.4080000000
171 3 3.2940000000 7.5900000000 11.3600000000
172 3 -2.0600000000 7.9540000000 11.6550000000
173 3 -0.1350000000 7.0000000000 15.7440000000
174 3 -4.1240000000 5.2940000000 12.8540000000
175 3 5.4210000000 8.1080000000 13.4950000000
176 3 2.7590000000 8.2400000000 16.4330000000
177 3 -0.2270000000 9.9880000000 17.0880000000
ITEM: TIMESTEP
1
ITEM: NUMBER OF ATOMS
177
ITEM: BOX BOUNDS pp pp pp
0 14.294261
0 14.294261
0 8.576556
ITEM: ATOMS id type x y z
1 1 0.3860000000 3.8880000000 11.8540000000
2 1 -1.9740000000 5.6310000000 12.3180000000
3 1 -1.9040000000 8.3860000000 14.2510000000
4 1 3.1460000000 7.6560000000 13.8460000000
5 1 2.9900000000 5.2200000000 12.2520000000
6 1 0.9180000000 9.2550000000 15.0070000000
7 2 12.2230000000 11.2810000000 19.9870000000
8 2 15.3300000000 1.6900000000 -19.4620000000
9 2 12.5040000000 10.5530000000 8.6640000000
10 2 1.7750000000 11.1170000000 23.3950000000
11 2 10.4250000000 7.4250000000 18.0440000000
12 2 11.4600000000 -0.1600000000 22.7540000000
13 2 7.4790000000 0.0450000000 28.1100000000
14 2 6.9320000000 10.9020000000 10.5410000000
15 2 16.8530000000 13.7520000000 25.3670000000
16 2 6.6980000000 4.0980000000 5.1540000000
17 2 5.2510000000 2.1820000000 7.9090000000
18 2 5.6300000000 -2.0670000000 12.6160000000
19 2 11.7500000000 14.7930000000 20.0820000000
20 2 6.6150000000 12.9710000000 25.7340000000
21 2 7.5260000000 1.3820000000 5.9570000000
22 2 9.6460000000 11.5750000000 19.0020000000
23 2 5.1160000000 15.6750000000 21.0850000000
24 2 19.1950000000 -0.5460000000 -2.0310000000
25 2 1.8000000000 11.6950000000 9.5680000000
26 2 7.3670000000 22.9370000000 12.9560000000
27 2 -3.0430000000 8.8670000000 24.1280000000
28 2 11.5330000000 16.9360000000 5.3200000000
29 2 2.8820000000 11.8000000000 21.0430000000
30 2 7.0780000000 20.4150000000 28.0310000000
31 2 11.9740000000 13.4530000000 17.4280000000
32 2 0.7050000000 7.9630000000 10.8110000000
33 2 1.0220000000 17.3470000000 10.2080000000
34 2 11.4940000000 19.1280000000 7.3570000000
35 2 3.3150000000 1.4490000000 9.9260000000
36 2 13.9930000000 12.9470000000 6.0600000000
37 2 -6.1490000000 6.8810000000 7.5780000000
38 2 5.7270000000 -8.5080000000 15.5340000000
39 2 -8.5690000000 10.7520000000 23.6940000000
40 2 -4.8850000000 18.7310000000 17.7920000000
41 2 9.3950000000 1.3290000000 9.5090000000
42 2 3.7480000000 22.1350000000 26.4570000000
43 2 -0.3730000000 5.3670000000 16.7460000000
44 2 0.0850000000 -0.7120000000 28.6180000000
45 2 13.6700000000 15.9090000000 25.9160000000
46 2 -4.9600000000 12.9360000000 16.2830000000
47 2 4.0740000000 4.9040000000 25.9310000000
48 2 1.9080000000 18.3780000000 15.9960000000
49 2 22.9320000000 20.3500000000 13.3480000000
50 2 -5.3090000000 10.4280000000 15.1550000000
51 2 6.4580000000 -5.8260000000 18.0720000000
52 2 -1.1930000000 4.4790000000 10.8850000000
53 2 -0.3120000000 2.2970000000 12.5790000000
54 2 2.0990000000 3.5500000000 12.5490000000
55 2 -2.7390000000 9.1710000000 12.8140000000
56 2 -0.5210000000 5.0130000000 13.2910000000
57 2 -2.4060000000 6.7190000000 13.8240000000
58 2 2.9160000000 5.7640000000 14.0770000000
59 2 1.4580000000 5.4380000000 11.1700000000
60 2 -0.6940000000 9.8450000000 14.3330000000
61 2 4.5130000000 4.4850000000 11.6570000000
62 2 1.6820000000 8.6430000000 13.3990000000
63 2 3.4010000000 7.0510000000 12.1440000000
64 2 -1.6510000000 7.0740000000 11.2960000000
65 2 -0.3170000000 7.7490000000 15.1330000000
66 2 -3.5450000000 4.6850000000 12.2560000000
67 2 4.7790000000 8.0960000000 14.2450000000
68 2 2.3610000000 8.2180000000 15.4510000000
69 2 0.6430000000 9.6400000000 16.9370000000
70 3 11.9600000000 10.4980000000 20.6030000000
71 3 12.9550000000 11.7110000000 20.4510000000
72 3 14.7090000000 1.7480000000 -20.3290000000
73 3 15.3070000000 0.7750000000 -19.1650000000
74 3 11.8730000000 9.9070000000 8.2180000000
75 3 12.4210000000 10.5160000000 9.6780000000
76 3 2.3090000000 11.1720000000 22.4820000000
77 3 1.2630000000 11.9730000000 23.3230000000
78 3 11.2330000000 7.2480000000 18.5130000000
79 3 9.9730000000 8.2070000000 18.3910000000
80 3 10.6530000000 -0.5220000000 23.2340000000
81 3 11.2570000000 0.7250000000 22.5170000000
82 3 7.2200000000 -0.2950000000 27.2320000000
83 3 7.2960000000 -0.6830000000 28.7290000000
84 3 7.9060000000 11.0090000000 10.4580000000
85 3 6.8340000000 10.0140000000 10.1470000000
86 3 17.0800000000 14.3260000000 26.1340000000
87 3 17.6620000000 13.6740000000 24.9040000000
88 3 6.3290000000 4.7470000000 5.7880000000
89 3 6.1530000000 4.1860000000 4.3540000000
90 3 4.7700000000 2.6950000000 7.1940000000
91 3 6.1340000000 2.1370000000 7.5750000000
92 3 5.7280000000 -2.6040000000 11.8170000000
93 3 5.8750000000 -2.6780000000 13.3380000000
94 3 11.3560000000 14.1820000000 19.4210000000
95 3 11.3400000000 14.4250000000 20.9270000000
96 3 6.5860000000 12.0530000000 25.9610000000
97 3 6.0220000000 13.0550000000 24.9990000000
98 3 8.0560000000 2.1280000000 5.6810000000
99 3 8.0940000000 0.7100000000 6.2510000000
100 3 9.8220000000 12.0460000000 18.1640000000
101 3 10.5840000000 11.5260000000 19.3270000000
102 3 5.7640000000 15.3070000000 20.4970000000
103 3 5.7140000000 15.9030000000 21.8390000000
104 3 19.4330000000 0.3820000000 -2.2850000000
105 3 19.1960000000 -1.0980000000 -2.8980000000
106 3 2.0450000000 12.4640000000 8.9560000000
107 3 1.0410000000 12.1040000000 10.0740000000
108 3 7.2800000000 22.9220000000 11.9730000000
109 3 7.8160000000 22.0560000000 13.0790000000
110 3 -3.4820000000 8.0270000000 24.5220000000
111 3 1.0700000000 10.4320000000 25.7980000000
112 3 11.2550000000 17.6050000000 4.6740000000
113 3 12.5300000000 16.8000000000 5.1650000000
114 3 3.8700000000 11.9040000000 21.1190000000
115 3 2.5760000000 11.6040000000 20.1660000000
116 3 6.2850000000 19.7920000000 28.0550000000
117 3 7.6260000000 19.9440000000 27.3630000000
118 3 12.2690000000 12.5330000000 17.3590000000
119 3 11.1660000000 13.5870000000 16.9080000000
120 3 0.8850000000 8.5810000000 10.0430000000
121 3 -0.2730000000 7.6470000000 10.6880000000
122 3 1.7550000000 16.6280000000 10.3200000000
123 3 0.2960000000 16.8300000000 9.8130000000
124 3 10.6710000000 19.1370000000 7.8660000000
125 3 11.4870000000 18.2220000000 6.9860000000
126 3 4.0030000000 1.7920000000 9.2570000000
127 3 3.8490000000 1.1170000000 10.6960000000
128 3 14.0810000000 13.1690000000 5.1070000000
129 3 13.0790000000 13.1850000000 6.3070000000
130 3 -5.7420000000 6.4420000000 8.3540000000
131 3 -7.0390000000 6.4280000000 7.4630000000
132 3 5.0210000000 -8.8740000000 16.0790000000
133 3 5.2850000000 -7.7710000000 15.0740000000
134 3 -7.6260000000 10.6020000000 23.9670000000
135 3 -8.8280000000 9.8330000000 23.4700000000
136 3 -5.0560000000 17.7590000000 17.6520000000
137 3 -4.4360000000 18.7470000000 18.6400000000
138 3 8.6890000000 1.0020000000 10.1620000000
139 3 10.1780000000 1.3070000000 10.1540000000
140 3 4.7260000000 22.3830000000 26.2890000000
141 3 3.9530000000 21.1600000000 26.4410000000
142 3 -0.3380000000 5.2060000000 17.7360000000
143 3 -1.2990000000 5.2020000000 16.5540000000
144 3 -0.8650000000 -0.3690000000 28.5870000000
145 3 0.6660000000 -0.0370000000 28.9720000000
146 3 13.6330000000 16.0040000000 24.9180000000
147 3 13.2730000000 14.9480000000 26.1330000000
148 3 -5.6900000000 13.3710000000 16.7770000000
149 3 -5.0650000000 12.0240000000 15.9880000000
150 3 4.3500000000 4.6130000000 26.8250000000
151 3 3.2520000000 4.3800000000 25.6980000000
152 3 1.5230000000 17.4880000000 15.6950000000
153 3 1.0870000000 18.7350000000 16.5100000000
154 3 22.2280000000 19.6360000000 13.3580000000
155 3 23.1330000000 20.6470000000 14.3110000000
156 3 -5.5430000000 10.1300000000 14.2480000000
157 3 -4.5000000000 9.8770000000 15.3460000000
158 3 6.6010000000 -6.7110000000 18.5130000000
159 3 7.0650000000 -5.9400000000 17.2410000000
160 3 -1.8260000000 3.8640000000 10.4710000000
161 3 -0.7990000000 1.7640000000 11.9410000000
162 3 2.1950000000 2.8070000000 13.1800000000
163 3 -3.5440000000 8.8270000000 12.4680000000
164 3 -0.0260000000 5.5510000000 13.9220000000
165 3 -2.4120000000 6.1150000000 14.5940000000
166 3 2.3650000000 5.1760000000 14.7040000000
167 3 1.2350000000 6.3560000000 10.8610000000
168 3 -0.7570000000 10.7480000000 14.0690000000
169 3 4.4730000000 3.4590000000 11.6870000000
170 3 1.2480000000 8.5120000000 12.5710000000
171 3 3.4110000000 7.4620000000 11.2900000000
172 3 -1.8870000000 7.9490000000 11.7420000000
173 3 -0.2970000000 6.9330000000 15.6770000000
174 3 -4.3210000000 5.1860000000 12.5700000000
175 3 5.4950000000 8.0490000000 13.6100000000
176 3 2.8080000000 8.0760000000 16.3060000000
177 3 -0.3100000000 9.8140000000 17.0800000000
ITEM: TIMESTEP
2
ITEM: NUMBER OF ATOMS
177
ITEM: BOX BOUNDS pp pp pp
0 14.294261
0 14.294261
0 8.576556
ITEM: ATOMS id type x y z
1 1 0.3750000000 3.8980000000 11.8330000000
2 1 -1.9680000000 5.5770000000 12.2920000000
3 1 -1.8250000000 8.3980000000 14.3060000000
4 1 3.1250000000 7.5790000000 13.9000000000
5 1 2.9520000000 5.2450000000 12.2210000000
6 1 0.8990000000 9.2640000000 14.9980000000
7 2 12.2580000000 11.2930000000 19.9700000000
8 2 15.3460000000 1.6050000000 -19.4770000000
9 2 12.4150000000 10.4860000000 8.7210000000
10 2 1.6700000000 11.0460000000 23.3400000000
11 2 10.3720000000 7.4890000000 18.0580000000
12 2 11.4180000000 -0.1650000000 22.8340000000
13 2 7.4160000000 0.0390000000 28.0630000000
14 2 6.9660000000 10.8820000000 10.5800000000
15 2 16.9720000000 13.7940000000 25.3160000000
16 2 6.7580000000 3.9920000000 5.1600000000
17 2 5.3530000000 2.1440000000 7.8360000000
18 2 5.6100000000 -2.1010000000 12.5950000000
19 2 11.7710000000 14.8490000000 19.9850000000
20 2 6.6060000000 13.0500000000 25.7130000000
21 2 7.4780000000 1.3970000000 5.9550000000
22 2 9.6910000000 11.5140000000 18.9170000000
23 2 5.1160000000 15.7570000000 21.1290000000
24 2 19.2810000000 -0.5300000000 -2.0860000000
25 2 1.8000000000 11.7450000000 9.5540000000
26 2 7.4330000000 22.9200000000 12.8910000000
27 2 -3.0160000000 8.8420000000 24.1250000000
28 2 11.4620000000 16.9430000000 5.3430000000
29 2 2.8770000000 11.8170000000 21.0880000000
30 2 7.0590000000 20.3930000000 28.0100000000
31 2 12.0930000000 13.5000000000 17.4520000000
32 2 0.6150000000 8.0130000000 10.8170000000
33 2 1.0300000000 17.3710000000 10.2290000000
34 2 11.4390000000 19.1490000000 7.3990000000
35 2 3.3220000000 1.4150000000 9.8940000000
36 2 14.0770000000 12.9710000000 6.0360000000
37 2 -6.2620000000 6.9160000000 7.6160000000
38 2 5.7020000000 -8.5560000000 15.5580000000
39 2 -8.5340000000 10.8000000000 23.6420000000
40 2 -4.9630000000 18.7380000000 17.7780000000
41 2 9.3570000000 1.3290000000 9.4940000000
42 2 3.8110000000 22.1880000000 26.4820000000
43 2 -0.4180000000 5.3850000000 16.7980000000
44 2 0.0310000000 -0.7160000000 28.5990000000
45 2 13.6140000000 15.9400000000 25.9460000000
46 2 -4.8880000000 12.9270000000 16.2990000000
47 2 4.0410000000 4.9160000000 26.0190000000
48 2 1.8470000000 18.4120000000 16.0230000000
49 2 22.9140000000 20.3170000000 13.3870000000
50 2 -5.3270000000 10.3740000000 15.1070000000
51 2 6.4600000000 -5.8240000000 18.0270000000
52 2 -1.1130000000 4.5000000000 10.9130000000
53 2 -0.2700000000 2.3260000000 12.5240000000
54 2 2.1150000000 3.5220000000 12.6300000000
55 2 -2.6910000000 9.1780000000 12.8220000000
56 2 -0.5250000000 4.9080000000 13.2290000000
57 2 -2.4920000000 6.7130000000 13.8970000000
58 2 2.9090000000 5.7290000000 13.9510000000
59 2 1.4290000000 5.3730000000 11.2530000000
60 2 -0.7060000000 9.9420000000 14.3600000000
61 2 4.5100000000 4.4890000000 11.6800000000
62 2 1.6110000000 8.6130000000 13.3810000000
63 2 3.4570000000 7.0390000000 12.0430000000
64 2 -1.6120000000 7.0090000000 11.2840000000
65 2 -0.3590000000 7.7630000000 15.0820000000
66 2 -3.5360000000 4.5480000000 12.1770000000
67 2 4.8050000000 8.1370000000 14.2600000000
68 2 2.4460000000 8.2020000000 15.4640000000
69 2 0.6170000000 9.7120000000 16.8790000000
70 3 12.1970000000 10.4670000000 20.5570000000
71 3 13.0990000000 11.8070000000 20.1130000000
72 3 14.8410000000 1.7000000000 -20.3500000000
73 3 15.3760000000 0.6440000000 -19.2290000000
74 3 11.8320000000 9.7730000000 8.2610000000
75 3 12.3140000000 10.4960000000 9.7010000000
76 3 2.1060000000 11.1090000000 22.3890000000
77 3 1.1530000000 11.8850000000 23.4920000000
78 3 11.0680000000 7.3760000000 18.7840000000
79 3 9.9110000000 8.3030000000 18.3600000000
80 3 10.8350000000 -0.5620000000 23.4780000000
81 3 11.2820000000 0.8360000000 23.0230000000
82 3 7.0830000000 -0.3520000000 27.2250000000
83 3 7.3010000000 -0.6390000000 28.7520000000
84 3 7.9200000000 11.0500000000 10.6220000000
85 3 6.7400000000 9.9620000000 10.1620000000
86 3 17.0830000000 14.3950000000 26.0570000000
87 3 17.9050000000 13.6600000000 24.9600000000
88 3 6.3380000000 4.4920000000 5.8900000000
89 3 6.1210000000 4.1470000000 4.4500000000
90 3 4.8690000000 2.6240000000 7.1780000000
91 3 6.2120000000 1.8940000000 7.3840000000
92 3 6.0130000000 -2.4170000000 11.7310000000
93 3 5.8620000000 -2.7990000000 13.2520000000
94 3 11.7110000000 14.3510000000 19.1550000000
95 3 11.2510000000 14.3350000000 20.6360000000
96 3 6.5890000000 12.1250000000 26.0990000000
97 3 5.9510000000 13.1530000000 24.9590000000
98 3 8.0590000000 2.1140000000 5.6270000000
99 3 8.0380000000 0.7000000000 6.4150000000
100 3 9.7990000000 11.9490000000 18.0460000000
101 3 10.5290000000 11.6010000000 19.3900000000
102 3 5.6780000000 15.2720000000 20.3970000000
103 3 5.7470000000 15.9580000000 21.8190000000
104 3 19.5170000000 0.3780000000 -2.1910000000
105 3 19.5270000000 -0.9570000000 -2.8780000000
106 3 2.0640000000 12.4430000000 8.8740000000
107 3 1.1790000000 12.1000000000 10.1710000000
108 3 6.9790000000 23.3110000000 12.1530000000
109 3 7.8400000000 22.0520000000 12.7030000000
110 3 -3.3480000000 8.1350000000 24.6160000000
111 3 1.1320000000 10.4180000000 25.9300000000
112 3 10.8980000000 17.4770000000 4.7040000000
113 3 12.2930000000 16.9230000000 4.8480000000
114 3 3.8300000000 11.9170000000 21.1730000000
115 3 2.8680000000 11.6310000000 20.1110000000
116 3 6.4730000000 19.6570000000 28.1840000000
117 3 7.7790000000 20.1360000000 27.4270000000
118 3 12.3790000000 12.5340000000 17.3280000000
119 3 11.1820000000 13.5000000000 17.1090000000
120 3 0.8380000000 8.4750000000 9.9740000000
121 3 -0.3330000000 7.6670000000 10.8380000000
122 3 1.7420000000 16.7430000000 10.3630000000
123 3 0.3980000000 17.0710000000 9.5160000000
124 3 10.6490000000 18.9950000000 7.9800000000
125 3 11.5400000000 18.4100000000 6.6950000000
126 3 4.0730000000 1.7830000000 9.3870000000
127 3 3.6960000000 1.1170000000 10.7180000000
128 3 14.0040000000 13.1130000000 5.0820000000
129 3 13.1960000000 13.4060000000 6.3690000000
130 3 -5.5410000000 6.3190000000 7.8790000000
131 3 -7.0480000000 6.2870000000 7.4330000000
132 3 5.1440000000 -9.0710000000 16.2270000000
133 3 5.1310000000 -7.8590000000 15.1610000000
134 3 -7.5780000000 10.6410000000 23.8120000000
135 3 -8.9850000000 9.9450000000 23.5190000000
136 3 -5.2400000000 17.8060000000 17.7440000000
137 3 -4.6090000000 18.8650000000 18.7500000000
138 3 8.8670000000 1.1460000000 10.2900000000
139 3 10.2140000000 1.5830000000 9.8010000000
140 3 4.6730000000 22.5150000000 26.2220000000
141 3 3.8260000000 21.2330000000 26.2880000000
142 3 -0.3420000000 5.3600000000 17.7580000000
143 3 -1.3480000000 5.2020000000 16.6040000000
144 3 -0.7790000000 -0.2480000000 28.4760000000
145 3 0.5530000000 0.0010000000 29.0100000000
146 3 13.7100000000 15.9080000000 24.9980000000
147 3 13.1370000000 15.0700000000 26.1150000000
148 3 -5.7280000000 13.1230000000 16.7090000000
149 3 -5.1980000000 12.2210000000 15.6440000000
150 3 4.4360000000 4.4870000000 26.8170000000
151 3 3.2000000000 4.5800000000 25.7730000000
152 3 1.6380000000 17.4810000000 15.7460000000
153 3 0.9500000000 18.8960000000 16.1620000000
154 3 22.1070000000 19.7740000000 13.3130000000
155 3 23.0150000000 20.4580000000 14.3280000000
156 3 -5.5770000000 10.1160000000 14.2120000000
157 3 -4.4860000000 9.8270000000 15.2750000000
158 3 6.5040000000 -6.6810000000 18.5890000000
159 3 7.1670000000 -5.9690000000 17.3950000000
160 3 -1.6750000000 3.8390000000 10.4960000000
161 3 -0.7800000000 1.7440000000 11.9390000000
162 3 2.1670000000 2.8000000000 13.2660000000
163 3 -3.6100000000 8.8010000000 12.6980000000
164 3 -0.0560000000 5.5970000000 13.7290000000
165 3 -2.5610000000 6.1290000000 14.6950000000
166 3 2.4260000000 5.2450000000 14.6940000000
167 3 1.1280000000 6.3000000000 11.0950000000
168 3 -0.8690000000 10.8820000000 14.0910000000
169 3 4.5100000000 3.5340000000 11.8260000000
170 3 1.1980000000 8.4560000000 12.4300000000
171 3 3.4880000000 7.6430000000 11.2560000000
172 3 -1.9300000000 7.8110000000 11.7990000000
173 3 -0.2610000000 7.1530000000 15.8360000000
174 3 -4.3070000000 5.0280000000 12.5850000000
175 3 5.4750000000 8.1410000000 13.5340000000
176 3 2.8410000000 8.2030000000 16.3530000000
177 3 -0.3830000000 9.9690000000 16.9360000000
ITEM: TIMESTEP
3
ITEM: NUMBER OF ATOMS
177
ITEM: BOX BOUNDS pp pp pp
0 14.294261
0 14.294261
0 8.576556
ITEM: ATOMS id type x y z
1 1 0.4070000000 3.9150000000 11.8400000000
2 1 -2.0070000000 5.5010000000 12.2820000000
3 1 -1.8250000000 8.4680000000 14.3420000000
4 1 3.1020000000 7.5480000000 13.8960000000
5 1 2.9450000000 5.2410000000 12.1810000000
6 1 0.8940000000 9.2120000000 14.9780000000
7 2 12.3060000000 11.3010000000 19.9710000000
8 2 15.3590000000 1.5240000000 -19.4810000000
9 2 12.3610000000 10.4400000000 8.7770000000
10 2 1.6360000000 10.9460000000 23.2740000000
11 2 10.3040000000 7.5390000000 18.0940000000
12 2 11.3670000000 -0.1560000000 22.9330000000
13 2 7.3150000000 0.0400000000 28.0390000000
14 2 6.9930000000 10.8640000000 10.5950000000
15 2 17.0640000000 13.7950000000 25.2420000000
16 2 6.7850000000 3.8940000000 5.1460000000
17 2 5.4480000000 2.0890000000 7.7530000000
18 2 5.6330000000 -2.1500000000 12.5850000000
19 2 11.7780000000 14.8890000000 19.8440000000
20 2 6.6350000000 13.1180000000 25.7360000000
21 2 7.4370000000 1.3750000000 5.9650000000
22 2 9.7180000000 11.4490000000 18.8340000000
23 2 5.1330000000 15.8280000000 21.1170000000
24 2 19.3720000000 -0.5300000000 -2.1250000000
25 2 1.7780000000 11.7660000000 9.5480000000
26 2 7.5070000000 22.9380000000 12.8360000000
27 2 -3.0150000000 8.8240000000 24.1940000000
28 2 11.3870000000 16.9440000000 5.3580000000
29 2 2.8910000000 11.8370000000 21.1140000000
30 2 7.0410000000 20.3760000000 28.0070000000
31 2 12.1970000000 13.5250000000 17.4600000000
32 2 0.5800000000 8.0810000000 10.8110000000
33 2 1.0730000000 17.3650000000 10.1890000000
34 2 11.3800000000 19.1510000000 7.3860000000
35 2 3.3610000000 1.4010000000 9.8860000000
36 2 14.1380000000 13.0180000000 5.9900000000
37 2 -6.3350000000 6.9340000000 7.6530000000
38 2 5.6940000000 -8.6400000000 15.5750000000
39 2 -8.4850000000 10.8240000000 23.5820000000
40 2 -5.0440000000 18.7300000000 17.7960000000
41 2 9.3300000000 1.3740000000 9.4830000000
42 2 3.8330000000 22.2300000000 26.4910000000
43 2 -0.4460000000 5.4290000000 16.8600000000
44 2 -0.0120000000 -0.7300000000 28.5940000000
45 2 13.5300000000 15.9690000000 25.9520000000
46 2 -4.8260000000 12.9040000000 16.2890000000
47 2 4.0260000000 4.9510000000 26.1180000000
48 2 1.7890000000 18.4640000000 16.0320000000
49 2 22.9370000000 20.2860000000 13.3970000000
50 2 -5.3320000000 10.3330000000 15.0440000000
51 2 6.4700000000 -5.8360000000 17.9790000000
52 2 -1.0840000000 4.5050000000 10.8980000000
53 2 -0.2600000000 2.2640000000 12.5080000000
54 2 2.0950000000 3.5430000000 12.6600000000
55 2 -2.5880000000 9.1350000000 12.8140000000
56 2 -0.5130000000 4.8210000000 13.1820000000
57 2 -2.5510000000 6.6370000000 13.8680000000
58 2 2.8890000000 5.7580000000 13.9090000000
59 2 1.4080000000 5.3560000000 11.3550000000
60 2 -0.7170000000 10.0210000000 14.3480000000
61 2 4.5020000000 4.4970000000 11.6600000000
62 2 1.5800000000 8.5950000000 13.3170000000
63 2 3.5170000000 7.0280000000 12.0030000000
64 2 -1.6810000000 6.9870000000 11.3080000000
65 2 -0.2960000000 7.7750000000 15.1010000000
66 2 -3.4590000000 4.5020000000 12.0770000000
67 2 4.7820000000 8.1650000000 14.2800000000
68 2 2.4770000000 8.2140000000 15.5490000000
69 2 0.5640000000 9.7850000000 16.8160000000
70 3 12.1890000000 10.5880000000 20.6630000000
71 3 13.1820000000 11.6380000000 20.0430000000
72 3 14.7900000000 1.6470000000 -20.2310000000
73 3 15.6380000000 0.6180000000 -19.4520000000
74 3 11.8820000000 9.8730000000 8.0690000000
75 3 11.9360000000 10.3230000000 9.6280000000
76 3 2.0340000000 11.3310000000 22.4590000000
77 3 0.9190000000 11.4550000000 23.6190000000
78 3 11.0560000000 7.4310000000 18.7220000000
79 3 9.8920000000 8.3850000000 18.3230000000
80 3 10.7910000000 -0.5780000000 23.6310000000
81 3 11.5150000000 0.7850000000 23.2110000000
82 3 6.8960000000 -0.4630000000 27.2760000000
83 3 7.3770000000 -0.6360000000 28.7320000000
84 3 7.9980000000 10.9170000000 10.6970000000
85 3 6.7980000000 10.0100000000 10.1170000000
86 3 17.2520000000 14.6350000000 25.7860000000
87 3 17.8440000000 13.6410000000 24.6420000000
88 3 6.4330000000 4.3590000000 5.9760000000
89 3 6.0080000000 4.0240000000 4.4960000000
90 3 5.0340000000 2.8570000000 7.2720000000
91 3 6.3150000000 1.9450000000 7.2670000000
92 3 6.2220000000 -2.5180000000 11.8800000000
93 3 5.7590000000 -2.7710000000 13.3550000000
94 3 11.8260000000 14.3410000000 19.0110000000
95 3 11.4150000000 14.3790000000 20.5730000000
96 3 6.3720000000 12.2740000000 26.1450000000
97 3 6.0210000000 13.2180000000 24.9350000000
98 3 7.8910000000 2.2090000000 5.6980000000
99 3 8.1500000000 0.8520000000 6.3830000000
100 3 9.8220000000 11.7200000000 17.9150000000
101 3 10.5070000000 11.6480000000 19.3930000000
102 3 5.6850000000 15.3140000000 20.5590000000
103 3 5.8380000000 16.2540000000 21.6760000000
104 3 19.4300000000 0.4680000000 -2.1430000000
105 3 19.6870000000 -0.8040000000 -3.0470000000
106 3 2.3450000000 12.4420000000 9.0760000000
107 3 1.2010000000 12.3740000000 10.0980000000