0
-1.29023
-8.2155
-7.2103
-6.21248
-1.23503
2.04868
9.49914
4.91411
-19.4339
-36.1657
-63.0141
-58.9557
-74.5898
-71.6333
-69.215
-75.3562
-65.1984
-76.2043
-69.0495
