-430421.128 
-430392.278 
-430429.638 
-430427.195 
-430446.140 
-430435.829 
-430426.118 
-430433.315 
-430434.091 
-430429.902 
-430448.945 
-430437.745 
-430443.337 
-430435.565 
-430438.987 
-430436.747 
-430444.642 
-430436.847 
-430446.617 
-430455.644 
-430458.610 
-430452.745 
-430461.031 
-430458.288 
-430462.497 
-430462.911 
-430453.798 
-430450.406 
-430451.538 
-430446.581 
-430454.635 
-430438.715 
-430442.743 
-430449.542 
-430447.457 
-430445.058 
-430442.963 
-430453.697 
-430441.864 
-430451.273 
-430447.749 
-430444.318 
-430440.113 
-430439.199 
-430443.126 
-430439.672 
-430442.173 
-430431.936 
