ITEM: TIMESTEP
0
ITEM: NUMBER OF ATOMS
109
ITEM: BOX BOUNDS pp pp pp
0 11.139000
0 11.139000
0 11.139000
ITEM: ATOMS id type x y z
1 4 -0.5990000000 25.1810000000 12.9120000000
2 2 1.4930000000 0.8690000000 31.9150000000
3 3 1.6800000000 0.4670000000 32.7850000000
4 3 2.3160000000 1.4380000000 31.8250000000
5 2 2.8260000000 7.2750000000 -0.2990000000
6 3 3.6410000000 7.3160000000 0.2400000000
7 3 2.1060000000 7.4070000000 0.3490000000
8 2 26.3060000000 -1.5510000000 -23.3760000000
9 3 25.6760000000 -2.3380000000 -23.2720000000
10 3 26.0870000000 -1.1480000000 -24.2900000000
11 2 0.6330000000 32.5690000000 0.7560000000
12 3 0.3480000000 32.2120000000 -0.1190000000
13 3 0.9750000000 31.8800000000 1.3620000000
14 2 0.6490000000 14.5560000000 17.5500000000
15 3 1.3770000000 14.3440000000 18.1950000000
16 3 -0.0490000000 15.0390000000 18.0610000000
17 2 31.0090000000 31.0920000000 -2.5960000000
18 3 31.0970000000 30.4030000000 -3.3440000000
19 3 30.9070000000 31.9690000000 -3.0120000000
20 2 17.5750000000 7.8340000000 16.4080000000
21 3 17.7460000000 8.6680000000 16.0020000000
22 3 16.6400000000 7.8420000000 16.7360000000
23 2 -0.2710000000 10.0700000000 9.6350000000
24 3 -0.9200000000 9.5120000000 9.1730000000
25 3 -0.0230000000 10.6730000000 8.9230000000
26 2 -1.7350000000 18.2340000000 15.1710000000
27 3 -2.0480000000 19.0750000000 14.8520000000
28 3 -1.6340000000 17.6660000000 14.4250000000
29 2 9.6080000000 1.3860000000 22.6070000000
30 3 9.9300000000 0.4750000000 22.4330000000
31 3 9.7790000000 1.7970000000 21.7500000000
32 2 -5.0000000000 2.9080000000 -7.0150000000
33 3 -4.7280000000 2.4540000000 -7.8240000000
34 3 -4.3300000000 2.7450000000 -6.3620000000
35 2 -1.3980000000 16.0020000000 19.0130000000
36 3 -2.1100000000 15.4050000000 18.7370000000
37 3 -1.4690000000 16.9060000000 18.4170000000
38 2 -1.2650000000 6.2470000000 22.3620000000
39 3 -1.1970000000 5.5190000000 21.7280000000
40 3 -1.5960000000 6.9830000000 21.7550000000
41 2 10.8380000000 5.0080000000 2.4820000000
42 3 11.1740000000 5.6450000000 1.8450000000
43 3 11.1810000000 5.3500000000 3.4140000000
44 2 15.1610000000 11.7580000000 0.8900000000
45 3 15.3170000000 11.0520000000 0.2800000000
46 3 16.0190000000 11.8900000000 1.3110000000
47 2 3.4800000000 19.1770000000 6.1510000000
48 3 2.5360000000 18.9720000000 6.5060000000
49 3 3.5110000000 20.1420000000 5.9080000000
50 2 -6.0620000000 29.8200000000 12.5410000000
51 3 -5.2110000000 29.9550000000 12.0700000000
52 3 -5.9760000000 28.9210000000 12.9500000000
53 2 13.0320000000 24.8750000000 35.4040000000
54 3 13.5960000000 25.4750000000 34.7970000000
55 3 13.5940000000 24.0610000000 35.4290000000
56 2 -0.5020000000 13.0280000000 15.5690000000
57 3 0.0650000000 13.4390000000 16.2090000000
58 3 -0.4290000000 12.0750000000 15.6460000000
59 2 7.7650000000 10.9100000000 26.4120000000
60 3 7.7820000000 11.7550000000 26.9210000000
61 3 8.6810000000 10.6860000000 26.4900000000
62 2 11.5110000000 10.9350000000 18.0160000000
63 3 11.4290000000 10.1680000000 17.2720000000
64 3 12.2710000000 11.4810000000 17.8130000000
65 2 -19.6800000000 3.1560000000 30.5380000000
66 3 -19.9580000000 3.9530000000 30.9670000000
67 3 -18.8470000000 3.3550000000 30.0860000000
68 2 -7.0560000000 14.0630000000 17.1350000000
69 3 -7.8980000000 14.2560000000 16.7710000000
70 3 -6.3920000000 14.2750000000 16.4480000000
71 2 -11.5100000000 14.2200000000 -1.3190000000
72 3 -11.2620000000 14.8700000000 -2.0080000000
73 3 -10.8850000000 13.4990000000 -1.3480000000
74 2 -6.3320000000 5.5250000000 25.3640000000
75 3 -6.5130000000 6.1280000000 26.0990000000
76 3 -5.7710000000 4.8500000000 25.8150000000
77 2 -6.9930000000 11.1520000000 5.9180000000
78 3 -6.7700000000 10.8410000000 4.9920000000
79 3 -7.0250000000 12.1280000000 5.8300000000
80 2 3.5890000000 31.8490000000 14.1060000000
81 3 3.4890000000 32.3560000000 13.2600000000
82 3 4.2210000000 31.1270000000 13.8830000000
83 2 12.5860000000 27.6950000000 -2.1290000000
84 3 13.2310000000 28.1600000000 -1.5800000000
85 3 12.3230000000 28.1870000000 -2.9890000000
86 2 17.7760000000 20.1060000000 10.8280000000
87 3 16.8460000000 20.3830000000 10.5530000000
88 3 18.1600000000 20.0120000000 9.9230000000
89 2 29.2620000000 -20.5370000000 12.8540000000
90 3 29.5580000000 -21.4300000000 13.2080000000
91 3 29.8340000000 -20.3810000000 12.0800000000
92 2 -1.9740000000 20.1060000000 -9.2990000000
93 3 -1.0680000000 20.3970000000 -9.5740000000
94 3 -2.5830000000 20.2400000000 -10.0730000000
95 2 -9.6070000000 18.8330000000 13.8050000000
96 3 -9.5800000000 18.1760000000 14.5630000000
97 3 -8.8850000000 19.4360000000 13.9780000000
98 2 8.8480000000 -8.9890000000 -3.5410000000
99 3 9.1010000000 -8.7460000000 -2.5990000000
100 3 9.6210000000 -9.4550000000 -3.9710000000
101 1 -0.3450000000 18.5880000000 16.7370000000
102 2 0.8150000000 18.6420000000 18.1360000000
103 3 0.7940000000 19.5460000000 18.5950000000
104 2 0.5200000000 17.2260000000 15.8660000000
105 3 1.0770000000 16.6230000000 16.4120000000
106 2 -0.4490000000 20.2880000000 16.2300000000
107 3 -0.1430000000 20.2780000000 15.3210000000
108 2 -1.8090000000 18.2320000000 17.6870000000
109 3 -2.5940000000 18.1690000000 17.1250000000
ITEM: TIMESTEP
1
ITEM: NUMBER OF ATOMS
109
ITEM: BOX BOUNDS pp pp pp
0 11.139000
0 11.139000
0 11.139000
ITEM: ATOMS id type x y z
1 4 -0.5880000000 25.1860000000 12.9320000000
2 2 1.5200000000 0.8450000000 31.9110000000
3 3 1.6930000000 0.2710000000 32.7110000000
4 3 2.3250000000 1.3640000000 31.5750000000
5 2 2.8470000000 7.2460000000 -0.2500000000
6 3 3.5660000000 7.1670000000 0.4150000000
7 3 2.0310000000 7.1960000000 0.2970000000
8 2 26.2570000000 -1.4860000000 -23.4260000000
9 3 25.5750000000 -2.1910000000 -23.3210000000
10 3 26.0730000000 -0.9840000000 -24.2930000000
11 2 0.6680000000 32.5650000000 0.8150000000
12 3 0.4020000000 32.2090000000 -0.0630000000
13 3 0.8970000000 31.7620000000 1.3330000000
14 2 0.6580000000 14.6340000000 17.5490000000
15 3 1.4520000000 14.5120000000 18.1320000000
16 3 -0.0870000000 14.8830000000 18.1200000000
17 2 31.0020000000 31.1050000000 -2.6040000000
18 3 31.2810000000 30.5080000000 -3.4150000000
19 3 30.7020000000 31.9320000000 -3.0580000000
20 2 17.6110000000 7.8330000000 16.4800000000
21 3 17.6400000000 8.6610000000 15.9870000000
22 3 16.7100000000 7.8160000000 16.8020000000
23 2 -0.3900000000 10.0650000000 9.6190000000
24 3 -1.0510000000 9.5490000000 9.1170000000
25 3 0.2100000000 10.6190000000 9.1000000000
26 2 -1.5530000000 18.2360000000 15.3450000000
27 3 -1.9460000000 18.9880000000 14.9100000000
28 3 -1.6260000000 17.5630000000 14.7150000000
29 2 9.5340000000 1.3850000000 22.5970000000
30 3 9.9910000000 0.5530000000 22.5260000000
31 3 9.7220000000 1.9040000000 21.8140000000
32 2 -4.9010000000 2.9540000000 -6.9740000000
33 3 -4.7140000000 2.5230000000 -7.8480000000
34 3 -4.0410000000 2.9500000000 -6.5320000000
35 2 -1.4380000000 16.0010000000 18.9770000000
36 3 -2.2490000000 15.5490000000 18.6740000000
37 3 -1.6040000000 17.0090000000 18.6720000000
38 2 -1.2770000000 6.2400000000 22.3320000000
39 3 -1.3240000000 5.4500000000 21.7830000000
40 3 -1.4860000000 7.0070000000 21.7130000000
41 2 10.8200000000 4.9860000000 2.4860000000
42 3 11.0250000000 5.6670000000 1.8290000000
43 3 11.2870000000 5.2940000000 3.3600000000
44 2 15.1100000000 11.6810000000 0.8770000000
45 3 15.1370000000 11.0490000000 0.1490000000
46 3 16.0100000000 12.0310000000 0.9640000000
47 2 3.4720000000 19.2160000000 6.1480000000
48 3 2.4570000000 18.9850000000 6.2840000000
49 3 3.4550000000 20.1750000000 6.0300000000
50 2 -6.0270000000 29.8090000000 12.5330000000
51 3 -5.1400000000 29.9880000000 12.1510000000
52 3 -5.9580000000 29.1190000000 13.2090000000
53 2 13.0370000000 24.8800000000 35.4070000000
54 3 13.3560000000 25.3580000000 34.5930000000
55 3 13.4390000000 23.9800000000 35.2790000000
56 2 -0.4440000000 13.0190000000 15.5540000000
57 3 0.0450000000 13.4870000000 16.2500000000
58 3 -0.4080000000 12.1040000000 15.8620000000
59 2 7.7770000000 10.9000000000 26.3940000000
60 3 7.6970000000 11.6420000000 27.0580000000
61 3 8.6350000000 10.4670000000 26.5190000000
62 2 11.4950000000 10.9360000000 17.9890000000
63 3 11.4660000000 10.1080000000 17.3020000000
64 3 12.1730000000 11.5340000000 17.6400000000
65 2 -19.6690000000 3.1390000000 30.6010000000
66 3 -20.0420000000 3.9480000000 30.9340000000
67 3 -18.7720000000 3.3870000000 30.3050000000
68 2 -7.0420000000 14.0780000000 17.1340000000
69 3 -7.6990000000 14.3220000000 16.4770000000
70 3 -6.2330000000 14.3240000000 16.6860000000
71 2 -11.5080000000 14.1770000000 -1.3240000000
72 3 -11.3320000000 14.8820000000 -1.9480000000
73 3 -10.8170000000 13.5470000000 -1.4160000000
74 2 -6.3620000000 5.4780000000 25.3730000000
75 3 -6.7240000000 6.0130000000 26.0640000000
76 3 -5.9350000000 4.6670000000 25.7830000000
77 2 -7.0150000000 11.1710000000 5.8420000000
78 3 -6.7950000000 10.8710000000 4.9100000000
79 3 -6.9660000000 12.1820000000 5.8350000000
80 2 3.5800000000 31.8760000000 14.1710000000
81 3 3.3650000000 32.4080000000 13.3390000000
82 3 4.1660000000 31.1510000000 13.7790000000
83 2 12.5500000000 27.7350000000 -2.1010000000
84 3 13.1090000000 28.3230000000 -1.6020000000
85 3 12.2980000000 28.4430000000 -2.8260000000
86 2 17.7960000000 20.1660000000 10.8010000000
87 3 16.8650000000 20.2900000000 10.5450000000
88 3 18.3960000000 20.1380000000 9.9950000000
89 2 29.2450000000 -20.5290000000 12.8330000000
90 3 29.5010000000 -21.4380000000 13.1170000000
91 3 29.9170000000 -20.3600000000 12.1380000000
92 2 -1.9910000000 20.1070000000 -9.3600000000
93 3 -1.2460000000 20.5470000000 -9.8370000000
94 3 -2.7570000000 20.2980000000 -9.9300000000
95 2 -9.6320000000 18.8540000000 13.8240000000
96 3 -9.5640000000 18.1860000000 14.5420000000
97 3 -8.9050000000 19.4690000000 13.9930000000
98 2 8.8240000000 -8.9770000000 -3.5490000000
99 3 9.2540000000 -8.9220000000 -2.6530000000
100 3 9.5100000000 -9.5480000000 -3.9800000000
101 1 -0.3740000000 18.5030000000 16.6410000000
102 2 0.7600000000 18.6030000000 18.0210000000
103 3 0.7640000000 19.3650000000 18.6310000000
104 2 0.5820000000 17.3530000000 15.9240000000
105 3 0.8080000000 16.7130000000 16.6070000000
106 2 -0.3990000000 20.1370000000 16.2830000000
107 3 -0.3160000000 20.4800000000 15.4020000000
108 2 -1.7370000000 18.2570000000 17.6890000000
109 3 -2.5510000000 18.1090000000 17.2610000000
ITEM: TIMESTEP
2
ITEM: NUMBER OF ATOMS
109
ITEM: BOX BOUNDS pp pp pp
0 11.139000
0 11.139000
0 11.139000
ITEM: ATOMS id type x y z
1 4 -0.5960000000 25.1860000000 12.9920000000
2 2 1.5300000000 0.8360000000 31.9140000000
3 3 1.9690000000 0.3800000000 32.7110000000
4 3 2.3010000000 1.2870000000 31.4720000000
5 2 2.8510000000 7.2120000000 -0.2030000000
6 3 3.6440000000 7.1120000000 0.3800000000
7 3 2.0830000000 7.1170000000 0.4000000000
8 2 26.2030000000 -1.3990000000 -23.4610000000
9 3 25.6380000000 -2.1820000000 -23.3400000000
10 3 26.0220000000 -1.1030000000 -24.3760000000
11 2 0.6890000000 32.5440000000 0.8870000000
12 3 0.2960000000 32.2970000000 0.0260000000
13 3 0.9580000000 31.7370000000 1.3550000000
14 2 0.6640000000 14.6900000000 17.5310000000
15 3 1.4110000000 14.5090000000 18.1700000000
16 3 -0.0710000000 15.0120000000 18.0760000000
17 2 30.9790000000 31.1210000000 -2.6150000000
18 3 31.3150000000 30.4310000000 -3.3160000000
19 3 30.4260000000 31.7530000000 -3.1240000000
20 2 17.6190000000 7.8340000000 16.5390000000
21 3 17.6090000000 8.6930000000 16.0500000000
22 3 16.7580000000 7.7880000000 16.9200000000
23 2 -0.4770000000 10.0680000000 9.6210000000
24 3 -1.1390000000 9.5920000000 9.0810000000
25 3 0.1320000000 10.3840000000 8.9130000000
26 2 -1.5930000000 18.1960000000 15.2550000000
27 3 -1.9260000000 18.9480000000 14.6980000000
28 3 -1.3830000000 17.3800000000 14.7850000000
29 2 9.4520000000 1.3770000000 22.5940000000
30 3 9.9850000000 0.6020000000 22.4710000000
31 3 9.7390000000 1.9030000000 21.8380000000
32 2 -4.7920000000 3.0020000000 -6.9380000000
33 3 -4.7200000000 2.6780000000 -7.8890000000
34 3 -3.8660000000 3.2750000000 -6.7340000000
35 2 -1.4960000000 15.9710000000 19.0140000000
36 3 -2.2750000000 15.4730000000 18.6790000000
37 3 -1.5330000000 16.9160000000 18.6120000000
38 2 -1.2880000000 6.2290000000 22.3020000000
39 3 -1.3310000000 5.5030000000 21.6470000000
40 3 -1.3900000000 7.0050000000 21.7260000000
41 2 10.8130000000 4.9760000000 2.4800000000
42 3 10.7340000000 5.7350000000 1.8600000000
43 3 11.4080000000 5.2710000000 3.2550000000
44 2 15.0640000000 11.6150000000 0.8650000000
45 3 15.0100000000 11.0120000000 0.0800000000
46 3 15.8730000000 12.1340000000 0.7000000000
47 2 3.4760000000 19.2580000000 6.1390000000
48 3 2.5230000000 18.8600000000 6.1970000000
49 3 3.3790000000 20.1990000000 6.1770000000
50 2 -6.0150000000 29.7870000000 12.5420000000
51 3 -5.1840000000 30.0960000000 12.1140000000
52 3 -5.7790000000 29.1390000000 13.1950000000
53 2 13.0410000000 24.8750000000 35.3860000000
54 3 13.2660000000 25.3440000000 34.5830000000
55 3 13.3370000000 23.9580000000 35.1880000000
56 2 -0.3920000000 13.0140000000 15.5420000000
57 3 -0.0960000000 13.6690000000 16.2060000000
58 3 -0.4320000000 12.1840000000 16.0520000000
59 2 7.7660000000 10.8840000000 26.3730000000
60 3 7.6890000000 11.4120000000 27.2040000000
61 3 8.5550000000 10.3080000000 26.6080000000
62 2 11.4880000000 10.9850000000 17.9860000000
63 3 11.2160000000 10.2060000000 17.2990000000
64 3 12.2650000000 11.4520000000 17.5900000000
65 2 -19.6620000000 3.1410000000 30.6860000000
66 3 -19.9990000000 4.0060000000 30.9160000000
67 3 -18.8030000000 3.3100000000 30.2380000000
68 2 -7.0190000000 14.0990000000 17.1210000000
69 3 -7.5810000000 14.3750000000 16.3500000000
70 3 -6.1260000000 14.1370000000 16.7900000000
71 2 -11.4910000000 14.1410000000 -1.3060000000
72 3 -11.5470000000 14.9460000000 -1.8010000000
73 3 -10.7020000000 13.6780000000 -1.5150000000
74 2 -6.3960000000 5.4310000000 25.3990000000
75 3 -6.8770000000 5.7410000000 26.1730000000
76 3 -5.9270000000 4.6250000000 25.7670000000
77 2 -7.0290000000 11.1830000000 5.7710000000
78 3 -6.9420000000 10.9720000000 4.8120000000
79 3 -6.9440000000 12.2010000000 5.8460000000
80 2 3.5770000000 31.8920000000 14.2010000000
81 3 3.4890000000 32.7150000000 13.6160000000
82 3 4.2900000000 31.3580000000 13.7060000000
83 2 12.5250000000 27.8070000000 -2.0850000000
84 3 13.0720000000 28.2770000000 -1.4770000000
85 3 12.2130000000 28.3750000000 -2.8800000000
86 2 17.8360000000 20.2260000000 10.7890000000
87 3 17.0050000000 20.2950000000 10.3150000000
88 3 18.4830000000 20.0610000000 10.0230000000
89 2 29.2200000000 -20.5360000000 12.7970000000
90 3 29.4500000000 -21.3630000000 13.2300000000
91 3 29.9810000000 -20.3910000000 12.1980000000
92 2 -2.0250000000 20.1250000000 -9.4200000000
93 3 -1.4250000000 20.6720000000 -9.9470000000
94 3 -2.9100000000 20.2640000000 -9.7520000000
95 2 -9.6160000000 18.8800000000 13.7530000000
96 3 -9.8150000000 18.3420000000 14.5170000000
97 3 -8.9850000000 19.5390000000 14.1330000000
98 2 8.8080000000 -9.0130000000 -3.5480000000
99 3 9.3290000000 -8.8720000000 -2.7480000000
100 3 9.3390000000 -9.5690000000 -4.1270000000
101 1 -0.3840000000 18.4550000000 16.6280000000
102 2 0.8590000000 18.5680000000 18.0970000000
103 3 0.5430000000 19.2610000000 18.6740000000
104 2 0.7630000000 17.2600000000 15.8730000000
105 3 0.9730000000 16.6070000000 16.5610000000
106 2 -0.3480000000 20.2590000000 16.2610000000
107 3 -0.2430000000 20.5790000000 15.3300000000
108 2 -1.8390000000 18.2550000000 17.8660000000
109 3 -2.6960000000 18.2200000000 17.4230000000
ITEM: TIMESTEP
3
ITEM: NUMBER OF ATOMS
109
ITEM: BOX BOUNDS pp pp pp
0 11.139000
0 11.139000
0 11.139000
ITEM: ATOMS id type x y z
1 4 -0.5890000000 25.1710000000 13.0500000000
2 2 1.5620000000 0.8330000000 31.9220000000
3 3 2.0140000000 0.5630000000 32.7590000000
4 3 2.1700000000 1.3760000000 31.3990000000
5 2 2.8420000000 7.1830000000 -0.1560000000
6 3 3.7270000000 7.1400000000 0.2890000000
7 3 2.2840000000 7.2760000000 0.6490000000
8 2 26.1420000000 -1.3380000000 -23.5130000000
9 3 25.7650000000 -2.1740000000 -23.2090000000
10 3 25.9590000000 -1.2810000000 -24.4230000000
11 2 0.6920000000 32.5270000000 0.9530000000
12 3 0.4000000000 32.2810000000 0.0470000000
13 3 0.9540000000 31.6790000000 1.3340000000
14 2 0.6470000000 14.7760000000 17.5070000000
15 3 1.2540000000 14.3350000000 18.1520000000
16 3 -0.0030000000 15.2650000000 18.0380000000
17 2 30.9550000000 31.1100000000 -2.6600000000
18 3 31.2080000000 30.3160000000 -3.2150000000
19 3 30.2720000000 31.5590000000 -3.1690000000
20 2 17.6380000000 7.8330000000 16.5980000000
21 3 17.6240000000 8.7100000000 16.1370000000
22 3 16.7510000000 7.7630000000 16.9480000000
23 2 -0.5310000000 10.0680000000 9.6170000000
24 3 -1.3380000000 9.6710000000 9.3010000000
25 3 -0.0010000000 10.4400000000 8.8600000000
26 2 -1.5410000000 18.1590000000 15.2340000000
27 3 -1.7320000000 18.7700000000 14.4770000000
28 3 -1.3110000000 17.3460000000 14.7370000000
29 2 9.3870000000 1.3680000000 22.5860000000
30 3 9.8360000000 0.5220000000 22.4360000000
31 3 9.7270000000 1.9110000000 21.8620000000
32 2 -4.6780000000 3.0510000000 -6.9180000000
33 3 -4.6690000000 2.6640000000 -7.8540000000
34 3 -3.8280000000 3.5540000000 -6.8370000000
35 2 -1.4960000000 15.9760000000 19.0270000000
36 3 -2.1870000000 15.3420000000 18.7400000000
37 3 -1.6880000000 16.8320000000 18.5420000000
38 2 -1.3060000000 6.2100000000 22.2550000000
39 3 -1.2440000000 5.6100000000 21.4770000000
40 3 -1.3010000000 7.0820000000 21.9030000000
41 2 10.7910000000 5.0370000000 2.5230000000
42 3 10.6830000000 5.6780000000 1.7750000000
43 3 11.5060000000 5.3640000000 3.1520000000
44 2 15.0090000000 11.5790000000 0.8430000000
45 3 15.0210000000 10.8470000000 0.1470000000
46 3 15.7770000000 12.1580000000 0.6630000000
47 2 3.4560000000 19.2830000000 6.1270000000
48 3 2.5410000000 18.9040000000 6.4330000000
49 3 3.2960000000 20.2310000000 6.1940000000
50 2 -6.0210000000 29.7890000000 12.5510000000
51 3 -5.3080000000 30.1680000000 11.9950000000
52 3 -5.7290000000 29.0500000000 13.0660000000
53 2 13.0330000000 24.8630000000 35.3530000000
54 3 13.3710000000 25.3860000000 34.6490000000
55 3 13.3520000000 23.9810000000 35.1080000000
56 2 -0.3630000000 13.0240000000 15.5200000000
57 3 -0.0230000000 13.7470000000 16.1260000000
58 3 -0.4080000000 12.2620000000 16.1360000000
59 2 7.7810000000 10.8540000000 26.3720000000
60 3 7.5160000000 11.2480000000 27.2030000000
61 3 8.4940000000 10.1610000000 26.5380000000
62 2 11.4590000000 11.0110000000 17.9690000000
63 3 11.1670000000 10.2500000000 17.2710000000
64 3 12.3910000000 11.1960000000 17.6820000000
65 2 -19.6620000000 3.1690000000 30.7670000000
66 3 -19.8700000000 4.0680000000 31.0150000000
67 3 -18.9980000000 3.2110000000 30.0500000000
68 2 -6.9870000000 14.1110000000 17.1030000000
69 3 -7.5280000000 14.4180000000 16.3150000000
70 3 -6.0910000000 14.0320000000 16.7240000000
71 2 -11.4900000000 14.1110000000 -1.2920000000
72 3 -11.6120000000 14.9280000000 -1.7700000000
73 3 -10.6520000000 13.7540000000 -1.5760000000
74 2 -6.4250000000 5.3660000000 25.4450000000
75 3 -7.0050000000 5.6330000000 26.1960000000
76 3 -5.7900000000 4.6900000000 25.7450000000
77 2 -7.0350000000 11.1810000000 5.7130000000
78 3 -7.1520000000 10.9740000000 4.7820000000
79 3 -7.0710000000 12.1880000000 5.8060000000
80 2 3.5910000000 31.9260000000 14.2130000000
81 3 3.6350000000 32.8340000000 13.8290000000
82 3 4.3110000000 31.4270000000 13.7110000000
83 2 12.4860000000 27.8530000000 -2.0940000000
84 3 13.0450000000 28.3950000000 -1.5310000000
85 3 12.4180000000 28.4860000000 -2.8910000000
86 2 17.8730000000 20.2800000000 10.7580000000
87 3 17.0720000000 20.4420000000 10.2560000000
88 3 18.5760000000 19.8940000000 10.1790000000
89 2 29.2010000000 -20.5390000000 12.7810000000
90 3 29.3770000000 -21.2560000000 13.3900000000
91 3 29.9780000000 -20.5990000000 12.1830000000
92 2 -2.0640000000 20.1250000000 -9.4540000000
93 3 -1.5150000000 20.7750000000 -9.8870000000
94 3 -2.9570000000 20.3080000000 -9.7510000000
95 2 -9.6610000000 18.9050000000 13.7700000000
96 3 -9.9130000000 18.3630000000 14.5090000000
97 3 -8.9760000000 19.5540000000 14.1170000000
98 2 8.7890000000 -9.0510000000 -3.5420000000
99 3 9.4680000000 -8.9100000000 -2.8930000000
100 3 9.3160000000 -9.5740000000 -4.1450000000
101 1 -0.3500000000 18.4580000000 16.7340000000
102 2 0.7270000000 18.5110000000 17.9810000000
103 3 0.5220000000 19.1460000000 18.6460000000
104 2 0.7410000000 17.2680000000 15.8960000000
105 3 1.3190000000 16.6020000000 16.2730000000
106 2 -0.3320000000 20.1590000000 16.2570000000
107 3 -0.0440000000 20.4280000000 15.3520000000
108 2 -1.7140000000 18.2770000000 17.8140000000
109 3 -2.6430000000 18.3830000000 17.5330000000
ITEM: TIMESTEP
4
ITEM: NUMBER OF ATOMS
109
ITEM: BOX BOUNDS pp pp pp
0 11.139000
0 11.139000
0 11.139000
ITEM: ATOMS id type x y z
1 4 -0.5990000000 25.1920000000 13.1030000000
2 2 1.6040000000 0.8380000000 31.9300000000
3 3 2.0510000000 0.7630000000 32.7690000000
4 3 2.1550000000 1.5310000000 31.5510000000
5 2 2.8340000000 7.1750000000 -0.0870000000
6 3 3.7670000000 7.0410000000 0.1690000000
7 3 2.3980000000 7.4420000000 0.7350000000
8 2 26.1020000000 -1.3300000000 -23.5660000000
9 3 25.7420000000 -2.1350000000 -23.1890000000
10 3 25.7970000000 -1.3730000000 -24.4490000000
11 2 0.6830000000 32.5110000000 1.0090000000
12 3 0.5470000000 32.3790000000 0.0420000000
13 3 0.8700000000 31.6680000000 1.4330000000
14 2 0.6380000000 14.8480000000 17.4920000000
15 3 1.0060000000 14.2860000000 18.2120000000
16 3 0.0450000000 15.4400000000 17.9970000000
17 2 30.8740000000 31.0890000000 -2.6850000000
18 3 31.3890000000 30.4650000000 -3.2720000000
19 3 30.2000000000 31.4100000000 -3.2870000000
20 2 17.6520000000 7.8300000000 16.6660000000
21 3 17.6780000000 8.6590000000 16.1610000000
22 3 16.6910000000 7.7580000000 16.9120000000
23 2 -0.5520000000 10.0830000000 9.6430000000
24 3 -1.3550000000 9.7170000000 9.2530000000
25 3 -0.2160000000 10.6070000000 8.8630000000
26 2 -1.5810000000 18.0870000000 15.1020000000
27 3 -1.4350000000 18.8800000000 14.5200000000
28 3 -1.2280000000 17.2530000000 14.6540000000
29 2 9.3340000000 1.3600000000 22.5750000000
30 3 9.6190000000 0.4370000000 22.3390000000
31 3 9.6980000000 1.8990000000 21.8560000000
32 2 -4.5740000000 3.1080000000 -6.9120000000
33 3 -4.4430000000 2.6710000000 -7.8180000000
34 3 -3.7870000000 3.6860000000 -6.8320000000
35 2 -1.4790000000 15.9510000000 19.0510000000
36 3 -2.0450000000 15.2180000000 18.7710000000
37 3 -1.7330000000 16.7820000000 18.6160000000
38 2 -1.3290000000 6.1870000000 22.2240000000
39 3 -1.0800000000 5.9110000000 21.3130000000
40 3 -1.1940000000 7.1290000000 22.1860000000
41 2 10.7560000000 5.1080000000 2.5430000000
42 3 10.8340000000 5.5690000000 1.6740000000
43 3 11.3980000000 5.5030000000 3.2050000000
44 2 14.9570000000 11.5730000000 0.8310000000
45 3 15.0670000000 10.8480000000 0.1110000000
46 3 15.7960000000 12.0820000000 0.7390000000
47 2 3.4260000000 19.3130000000 6.1340000000
48 3 2.5640000000 18.9670000000 6.5200000000
49 3 3.3740000000 20.2970000000 6.0240000000
50 2 -6.0410000000 29.8130000000 12.5290000000
51 3 -5.2880000000 30.1030000000 11.9910000000
52 3 -5.7750000000 28.9970000000 12.9850000000
53 2 13.0170000000 24.8440000000 35.3050000000
54 3 13.5410000000 25.4870000000 34.8200000000
55 3 13.3640000000 23.9910000000 35.0580000000
56 2 -0.3450000000 13.0380000000 15.4890000000
57 3 0.0900000000 13.7440000000 16.0910000000
58 3 -0.3340000000 12.2430000000 16.0650000000
59 2 7.8000000000 10.8320000000 26.3550000000
60 3 7.4670000000 11.0560000000 27.2250000000
61 3 8.5270000000 10.1950000000 26.5610000000
62 2 11.4320000000 11.0360000000 17.9200000000
63 3 11.1880000000 10.1720000000 17.3930000000
64 3 12.4080000000 10.9850000000 17.9570000000
65 2 -19.6570000000 3.1920000000 30.8270000000
66 3 -19.9380000000 4.1140000000 30.9850000000
67 3 -19.1650000000 3.2130000000 29.9990000000
68 2 -6.9470000000 14.1130000000 17.0640000000
69 3 -7.5430000000 14.4530000000 16.3640000000
70 3 -6.0320000000 14.1200000000 16.6500000000
71 2 -11.5180000000 14.1020000000 -1.2960000000
72 3 -11.5530000000 14.9130000000 -1.8300000000
73 3 -10.6820000000 13.6120000000 -1.4590000000
74 2 -6.4440000000 5.2970000000 25.4810000000
75 3 -6.9690000000 5.6600000000 26.2520000000
76 3 -5.7950000000 4.7650000000 25.9510000000
77 2 -7.0360000000 11.1700000000 5.6700000000
78 3 -7.3130000000 10.8620000000 4.8020000000
79 3 -7.2640000000 12.1230000000 5.7020000000
80 2 3.6390000000 31.9760000000 14.2250000000
81 3 3.6450000000 32.7310000000 13.6000000000
82 3 4.2640000000 31.3450000000 13.7850000000
83 2 12.4720000000 27.9120000000 -2.1030000000
84 3 12.9590000000 28.4560000000 -1.4420000000
85 3 12.3710000000 28.3540000000 -2.9660000000
86 2 17.9100000000 20.3170000000 10.7410000000
87 3 17.2150000000 20.6630000000 10.1550000000
88 3 18.4800000000 19.8430000000 10.1170000000
89 2 29.1840000000 -20.5650000000 12.7780000000
90 3 29.2980000000 -21.2460000000 13.4580000000
91 3 29.8980000000 -20.7840000000 12.1500000000
92 2 -2.1000000000 20.1210000000 -9.4870000000
93 3 -1.4440000000 20.8010000000 -9.6670000000
94 3 -2.9470000000 20.4310000000 -9.8510000000
95 2 -9.6940000000 18.9450000000 13.7580000000
96 3 -9.7870000000 18.3490000000 14.4890000000
97 3 -8.9090000000 19.5340000000 14.0500000000
98 2 8.7920000000 -9.0940000000 -3.5450000000
99 3 9.4410000000 -9.0160000000 -2.8620000000
100 3 9.2030000000 -9.5560000000 -4.2760000000
101 1 -0.3170000000 18.4790000000 16.7880000000
102 2 0.7680000000 18.4690000000 18.0780000000
103 3 0.5310000000 19.1550000000 18.7250000000
104 2 0.7090000000 17.2460000000 15.8190000000
105 3 1.4210000000 16.8400000000 16.3560000000
106 2 -0.3430000000 20.1400000000 16.2200000000
107 3 0.1730000000 20.1980000000 15.3880000000
108 2 -1.7070000000 18.2730000000 17.8040000000
109 3 -2.4770000000 18.3860000000 17.1610000000
ITEM: TIMESTEP
5
ITEM: NUMBER OF ATOMS
109
ITEM: BOX BOUNDS pp pp pp
0 11.139000
0 11.139000
0 11.139000
ITEM: ATOMS id type x y z
1 4 -0.5890000000 25.1830000000 13.1690000000
2 2 1.6410000000 0.8790000000 31.9430000000
3 3 1.9540000000 0.7040000000 32.8020000000
4 3 2.1090000000 1.6160000000 31.5500000000
5 2 2.8240000000 7.1850000000 -0.0320000000
6 3 3.7270000000 6.9740000000 0.2580000000
7 3 2.4240000000 7.4110000000 0.8170000000
8 2 26.0690000000 -1.3540000000 -23.6120000000
9 3 25.7050000000 -2.1530000000 -23.2280000000
10 3 25.6260000000 -1.2070000000 -24.4740000000
11 2 0.6550000000 32.5100000000 1.0700000000
12 3 0.4840000000 32.3230000000 0.1020000000
13 3 0.7810000000 31.6080000000 1.4190000000
14 2 0.6360000000 14.9330000000 17.4720000000
15 3 0.8430000000 14.3210000000 18.1940000000
16 3 -0.0890000000 15.4930000000 17.8490000000
17 2 30.7880000000 31.0600000000 -2.7320000000
18 3 31.3180000000 30.4680000000 -3.3410000000
19 3 30.0860000000 31.3480000000 -3.3320000000
20 2 17.6670000000 7.8310000000 16.7340000000
21 3 17.7640000000 8.5390000000 16.0970000000
22 3 16.6760000000 7.7870000000 16.9580000000
23 2 -0.5710000000 10.1250000000 9.6620000000
24 3 -1.3620000000 9.7160000000 9.2650000000
25 3 -0.2220000000 10.7910000000 9.0440000000
26 2 -1.5220000000 18.0720000000 15.1500000000
27 3 -1.4410000000 18.8370000000 14.4830000000
28 3 -1.4930000000 17.3860000000 14.5390000000
29 2 9.2900000000 1.3420000000 22.5770000000
30 3 9.4780000000 0.4310000000 22.1890000000
31 3 9.5680000000 1.9350000000 21.8510000000
32 2 -4.4700000000 3.1860000000 -6.9180000000
33 3 -4.2720000000 2.7870000000 -7.8180000000
34 3 -3.7060000000 3.7080000000 -6.6620000000
35 2 -1.4430000000 15.9440000000 19.0470000000
36 3 -2.0120000000 15.2390000000 18.7370000000
37 3 -1.7510000000 16.7690000000 18.6390000000
38 2 -1.3430000000 6.1700000000 22.1920000000
39 3 -0.9170000000 6.1680000000 21.3260000000
40 3 -1.2610000000 7.0600000000 22.5970000000
41 2 10.7250000000 5.1900000000 2.5500000000
42 3 10.9350000000 5.6030000000 1.6900000000
43 3 11.3680000000 5.3420000000 3.2660000000
44 2 14.9180000000 11.5950000000 0.8260000000
45 3 14.9320000000 11.0460000000 -0.0500000000
46 3 15.7980000000 11.9890000000 0.9900000000
47 2 3.4030000000 19.3250000000 6.1360000000
48 3 2.4710000000 19.1630000000 6.4650000000
49 3 3.3890000000 20.3030000000 5.9190000000
50 2 -6.0440000000 29.8230000000 12.5020000000
51 3 -5.2460000000 30.1120000000 12.0500000000
52 3 -5.8690000000 29.0090000000 13.0520000000
53 2 13.0000000000 24.8320000000 35.2470000000
54 3 13.7260000000 25.4950000000 35.0910000000
55 3 13.4570000000 24.0140000000 35.0190000000
56 2 -0.3300000000 13.0570000000 15.4560000000
57 3 0.0470000000 13.7460000000 16.1390000000
58 3 -0.1950000000 12.1930000000 15.8920000000
59 2 7.8200000000 10.8290000000 26.3490000000
60 3 7.4020000000 10.9790000000 27.2140000000
61 3 8.5980000000 10.3000000000 26.4650000000
62 2 11.4020000000 11.0420000000 17.8720000000
63 3 11.2020000000 10.2100000000 17.2830000000
64 3 12.2730000000 10.9280000000 18.2470000000
65 2 -19.6530000000 3.2060000000 30.8760000000
66 3 -20.1250000000 4.0670000000 30.9850000000
67 3 -19.1130000000 3.2580000000 30.0850000000
68 2 -6.9300000000 14.1130000000 17.0320000000
69 3 -7.5300000000 14.4920000000 16.3960000000
70 3 -6.0190000000 14.2020000000 16.5870000000
71 2 -11.5480000000 14.1050000000 -1.3030000000
72 3 -11.3520000000 14.8880000000 -1.8760000000
73 3 -10.7630000000 13.4770000000 -1.3320000000
74 2 -6.4700000000 5.2270000000 25.5340000000
75 3 -6.8830000000 5.8660000000 26.1460000000
76 3 -5.7970000000 4.7210000000 25.9940000000
77 2 -7.0570000000 11.1330000000 5.6370000000
78 3 -7.3030000000 10.7830000000 4.7660000000
79 3 -7.3120000000 12.0400000000 5.6320000000
80 2 3.6930000000 32.0200000000 14.2110000000
81 3 3.5760000000 32.4730000000 13.3630000000
82 3 4.2780000000 31.2880000000 14.0070000000
83 2 12.4560000000 27.9380000000 -2.1070000000
84 3 12.9120000000 28.5900000000 -1.5010000000
85 3 12.2830000000 28.5470000000 -2.9210000000