ITEM: TIMESTEP
0
ITEM: NUMBER OF ATOMS
54
ITEM: BOX BOUNDS ff ff ff
-34 34
-34 34
-34 34
ITEM: ATOMS id type x y z
1 1 6.4684918438 6.8216261215 5.9332280656
2 2 7.6652842562 6.8305967584 7.3956880162
3 3 8.8116559718 6.7773138259 5.3186297062
4 2 5.6820077043 8.4705955959 5.5061861390
5 3 7.4044317285 6.9075860722 8.3627128633
6 2 5.3625424715 5.9843126997 6.9405930292
7 3 4.4472285648 5.9832838326 6.7274354650
8 2 7.9451570717 6.7538304530 4.9807778853
9 3 6.1584452243 8.5971756716 4.6649638605
10 2 5.4602444104 3.9735951131 9.6064458664
11 3 6.3826053227 3.9809980632 9.4764984989
12 3 5.2307533705 4.9464993927 9.6303466375
13 3 7.7393524007 5.5894086385 2.3945299601
14 2 6.8709611454 5.0510872393 2.4225184707
15 2 7.8843052391 9.9439002799 3.5446678955
16 2 2.9788904779 7.5464284775 5.1535358104
17 3 3.9224762041 7.9176284491 5.1693244383
18 3 3.0321937676 6.5963167054 5.3275168608
19 2 7.1408749643 3.9999840631 5.8871657746
20 3 7.9684726789 3.9627215842 6.3886641060
21 3 6.4197475013 3.9648993824 6.5979882417
22 3 8.9871846103 9.9463311146 5.8578402227
23 3 6.9720938533 4.0739957321 2.5144924087
24 2 8.9262997366 9.9876868141 6.8263013178
25 2 7.8382966708 8.5553087162 9.5483967327
26 3 8.8077693053 8.4325304982 9.5760078765
27 2 10.1694332405 6.8739724390 6.8369937667
28 3 9.0942962184 6.8006992161 7.1330291174
29 3 10.2042320369 7.8481765691 6.8928515521
30 3 8.8644093395 9.8886388779 3.4954814590
31 2 5.4069781027 5.9537298003 4.2282366949
32 3 4.9703157911 6.5941696535 3.6001190384
33 3 6.0917595361 5.5475556671 3.6303290541
34 2 2.9570655969 5.0404115900 6.0479577463
35 3 2.9944519373 4.0683034436 6.2097557628
36 3 2.0333614009 5.2195045037 6.2987218274
37 3 7.6173496697 9.9237209068 2.5935461893
38 2 4.1754695193 2.5147333270 7.2829652676
39 3 4.3262603252 2.6035237795 8.2565241999
40 3 4.1651824638 1.5728101525 7.1416606084
41 3 6.0148190187 7.4735296195 9.6750304340
42 2 7.8193969182 3.9770624520 8.4393050192
43 2 8.9961715635 6.6865094621 2.4765459977
44 3 8.8518708896 6.8212471694 3.5171316414
45 3 9.8080297478 6.1449900947 2.3956126917
46 3 5.3380207152 6.5416076139 8.5423144077
47 2 5.4417127994 6.7076098621 9.5539708515
48 3 7.9744691164 9.9717864043 6.9395975189
49 3 8.8167773676 3.9968811698 8.4115442290
50 3 7.7254333133 8.5038564939 8.5228191323
51 3 7.6434785720 4.9705574356 8.4225639825
52 2 6.3636754971 9.9700036940 7.4913149390
53 3 5.7188624074 9.9019391897 6.7756215756
54 3 6.0462568312 9.9975797402 8.4048612909
ITEM: TIMESTEP
1
ITEM: NUMBER OF ATOMS
54
ITEM: BOX BOUNDS ff ff ff
-34 34
-34 34
-34 34
ITEM: ATOMS id type x y z
1 1 6.4705406560 6.8158942861 5.9248975502
2 2 7.7043877733 6.7629945917 7.3765830389
3 3 8.6912256501 6.7862260382 5.4333556644
4 2 5.6904700209 8.4455955990 5.5112654203
5 3 7.4594982962 6.7052933414 8.3529859218
6 2 5.3014855067 5.9843972344 6.9463821220
7 3 4.3752573414 6.0419062145 6.7738926310
8 2 7.9472094849 6.7173400373 4.8741526161
9 3 6.0357346159 8.6245676265 4.6251792101
10 2 5.4623488213 3.9528719449 9.6172942675
11 3 6.3883784129 3.8785681350 9.6588306522
12 3 5.4323047018 4.9455620982 9.7249995045
13 3 7.7799507011 5.6176316821 2.4658676112
14 2 6.9260228110 5.0459719576 2.4445518582
15 2 7.8923371467 9.9587235096 3.5794338876
16 2 2.9589360341 7.5764378461 5.1635498071
17 3 3.9590385998 7.7012416818 5.2413468669
18 3 2.9473497693 6.6079730467 5.2620058836
19 2 7.1188117272 3.9131081899 5.8272970524
20 3 7.9481650781 3.9941378208 6.3252481596
21 3 6.4534568730 3.9917522708 6.5928150718
22 3 8.8919522858 9.9477191902 5.8381053482
23 3 7.2840574204 4.1124258926 2.4171623749
24 2 8.9478782143 9.9480153474 6.8081665108
25 2 7.8682991888 8.5230140310 9.5250223170
26 3 8.8355054443 8.4915697129 9.6158717757
27 2 10.1226640747 6.8372717135 6.8327739307
28 3 9.0940557073 6.6265162581 7.1119507594
29 3 10.1229756729 7.7949481016 7.0038169163
30 3 8.8672441466 9.9802321877 3.6190361251
31 2 5.4532853802 5.9586632218 4.2385989659
32 3 4.8994279818 6.4855302851 3.6229390642
33 3 6.1081024769 5.5532283570 3.6116339210
34 2 2.8820497590 5.0361479515 6.1178763054
35 3 3.0461104316 4.0756244930 6.2414063005
36 3 1.9451804288 5.1814776514 6.0777357882
37 3 7.7580131529 9.9630521079 2.6002616652
38 2 4.1353800485 2.5427163358 7.2612632953
39 3 4.1639551632 2.5293978230 8.2460499006
40 3 4.1574309040 1.6301169765 6.9848882298
41 3 6.2103584575 7.3926269699 9.6315214225
42 2 7.7993174825 3.9775223682 8.4502476046
43 2 8.9715482318 6.7788481883 2.4812127322
44 3 8.8543736247 6.7531081115 3.5434898615
45 3 9.8721913660 6.3669533410 2.4539508807
46 3 5.4664093183 6.5955505609 8.5999386946
47 2 5.5567169940 6.6736897141 9.5814193587
48 3 8.0019151168 9.9601299732 7.0676347421
49 3 8.7892493056 3.9610303446 8.4972691129
50 3 7.7895942787 8.5578865126 8.5034129894
51 3 7.6189345202 4.9580482479 8.4090261961
52 2 6.4149725110 9.9733731427 7.4697096217
53 3 5.7685901448 9.9325477514 6.7480400003
54 3 5.9378927171 9.9449530502 8.3233054223
ITEM: TIMESTEP
2
ITEM: NUMBER OF ATOMS
54
ITEM: BOX BOUNDS ff ff ff
-34 34
-34 34
-34 34
ITEM: ATOMS id type x y z
1 1 6.4796806323 6.8128285127 5.9081485995
2 2 7.7172273069 6.6995226567 7.3653488951
3 3 8.7889056036 6.7628968519 5.2605441307
4 2 5.7001603096 8.4546167052 5.5170078718
5 3 7.5446306218 6.6031936571 8.3529689095
6 2 5.2312167743 5.9918258595 6.9777578430
7 3 4.3040021073 5.9103272827 6.7618088777
8 2 7.9431518111 6.6954688240 4.8139799202
9 3 6.0220237212 8.5919064335 4.6173732702
10 2 5.4681440895 3.9418443176 9.6319588164
11 3 6.3992450207 3.9333942890 9.5680075406
12 3 5.3066583798 4.9292388549 9.6074127507
13 3 7.7960362935 5.6537431600 2.4115848112
14 2 7.0111480334 5.0115633036 2.4358356454
15 2 7.8883520745 9.9611351060 3.6002245623
16 2 2.9528021748 7.5956489725 5.1711514371
17 3 3.9033434828 7.7731399893 5.4220929589
18 3 2.8883438655 6.6348909971 5.1076733920
19 2 7.0858945362 3.9518976981 5.7463311401
20 3 7.9077386650 3.8963139366 6.2632626856
21 3 6.3634338601 3.8970797934 6.4576183708
22 3 8.8651467065 9.9334462182 5.8274249673
23 3 7.2588081897 4.0538818948 2.5265671493
24 2 8.9578563113 9.9193106989 6.7902575507
25 2 7.8933377202 8.4967665800 9.5663451235
26 3 8.8618897391 8.5491241807 9.6003975861
27 2 10.0575808723 6.7831657307 6.8358101307
28 3 9.0096069945 6.7314284311 7.0506386745
29 3 10.1378991807 7.7458849601 6.9638980485
30 3 8.8580787688 9.8701871679 3.6426460324
31 2 5.4934220670 5.9752936104 4.2701627217
32 3 4.8657866235 6.4355476202 3.6691915823
33 3 6.1181478538 5.4588063753 3.6403347897
34 2 2.8687301700 5.0338053716 6.1775762565
35 3 2.9608020188 4.0613893198 6.3278243044
36 3 1.9270938640 5.0660316967 6.0458398883
37 3 7.7429749536 9.9302364663 2.6217453040
38 2 4.0967437291 2.5067341884 7.2373848186
39 3 4.1812685873 2.5175524568 8.2203930446
40 3 4.1134223730 1.6084221775 6.9134064663
41 3 6.3952799419 7.3026764340 9.6707659992
42 2 7.8435198943 3.9380470649 8.4726125072
43 2 8.9298940256 6.8430948704 2.4761243770
44 3 8.6907316454 6.9006410741 3.5148730905
45 3 9.8911898268 6.6705962706 2.3929803089
46 3 5.4945357312 6.4602474017 8.5653433817
47 2 5.6737048434 6.6621079849 9.5716135044
48 3 8.0059913608 9.9512499038 7.1390116349
49 3 8.8259376814 3.9388214635 8.4112812607
50 3 7.7683335545 8.4647442219 8.5373313489
51 3 7.5409821214 4.8807803834 8.4285896174
52 2 6.4423442757 9.9367158018 7.4717411851
53 3 5.8873883591 9.8808650679 6.6701294429
54 3 5.9706938194 9.9356027068 8.3251631882
ITEM: TIMESTEP
3
ITEM: NUMBER OF ATOMS
54
ITEM: BOX BOUNDS ff ff ff
-34 34
-34 34
-34 34
ITEM: ATOMS id type x y z
1 1 6.4780085001 6.7987780569 5.9011293018
2 2 7.6755573485 6.6416462004 7.3493324099
3 3 8.8006661616 6.6381167700 5.1998196134
4 2 5.7054701543 8.4539438224 5.5193762967
5 3 7.5639867458 6.6683320284 8.3508821045
6 2 5.1987079026 6.0255254253 7.0028555580
7 3 4.2807110157 5.8346361919 6.7458690038
8 2 7.9240378680 6.6826849314 4.8170192346
9 3 6.0515941156 8.5352663083 4.6240776190
10 2 5.4629516583 3.9113793761 9.6319198610
11 3 6.3871403579 3.9275272079 9.5201313900
12 3 5.1628282827 4.8552975444 9.6133168312
13 3 7.9485074385 5.4234014481 2.4916874469
14 2 7.0759528661 4.9700453574 2.4287557292
15 2 7.8645296311 9.9190486601 3.5922850539
16 2 2.9350403385 7.6071954597 5.1808160251
17 3 3.8458395081 7.8604483293 5.4685870277
18 3 3.0202275359 6.6549362652 5.0342063323
19 2 7.0437162137 3.9419104348 5.6501799469
20 3 7.7942919042 3.9672815485 6.2797985396
21 3 6.2628819032 3.9677788235 6.2969272681
22 3 8.9022364878 9.9177118698 5.8108202565
23 3 7.2825858668 4.0073033542 2.4461041973
24 2 8.9316882924 9.9430918027 6.7786496684
25 2 7.8991217153 8.4711696003 9.6156110598
26 3 8.8727391975 8.4375292544 9.6190931042
27 2 10.0373253869 6.7276168740 6.8285058725
28 3 9.0005052625 6.7012299924 7.0701359462
29 3 10.1998420259 7.6824359987 6.7976792258
30 3 8.8459237613 9.9570885289 3.5237361917
31 2 5.5313904613 5.9733778540 4.2982494393
32 3 5.0063181965 6.4519537875 3.6455405460
33 3 6.1930379936 5.5404068624 3.6278185214
34 2 2.9216182251 4.9988533714 6.2176872873
35 3 3.0189753049 4.0511009967 6.4405492044
36 3 1.9768993788 5.2531846741 6.2511782958
37 3 7.5860755473 9.9183792310 2.6407576199
38 2 4.0566617846 2.4621756118 7.2088658088
39 3 4.2600073709 2.4953859875 8.1796777506
40 3 4.0401719249 1.5191677856 7.0174184716
41 3 6.5188408193 7.2704318433 9.5998568595
42 2 7.9015684714 3.8977945394 8.4433346338
43 2 8.8991626370 6.9059982960 2.4723821197
44 3 8.7754590907 7.0113150925 3.4812877120
45 3 9.8798356927 6.9074570827 2.4674887257
46 3 5.5810126313 6.5622454230 8.4968798355
47 2 5.7734731073 6.6471605421 9.5577973161
48 3 7.9180272608 9.9410346414 7.0392440424
49 3 8.8856822281 3.9782261485 8.4881967204
50 3 7.7226723456 8.4424625753 8.5893374452
51 3 7.6179036918 4.8467965744 8.3991644689
52 2 6.4698286874 9.9457701220 7.4952170356
53 3 5.8828388478 9.8922680926 6.7106854718
54 3 5.9836021625 9.9511909815 8.3429390865
ITEM: TIMESTEP
4
ITEM: NUMBER OF ATOMS
54
ITEM: BOX BOUNDS ff ff ff
-34 34
-34 34
-34 34
ITEM: ATOMS id type x y z
1 1 6.4556116194 6.7736273531 5.9161368361
2 2 7.6134774131 6.5975139350 7.3390495188
3 3 8.7022425035 6.4930345748 5.4249391448
4 2 5.7036268998 8.4119333079 5.5158087704
5 3 7.3976632039 6.6834868963 8.3211807110
6 2 5.2199597373 6.0892736375 7.0066047698
7 3 4.2766004303 5.9310959224 6.7723484944
8 2 7.9153696716 6.6715323379 4.8604568234
9 3 6.0937459585 8.5956038119 4.6593981532
10 2 5.4298455181 3.9027452125 9.5967181529
11 3 6.3656511035 3.8729663025 9.6052379896
12 3 5.2623649473 4.8873741595 9.6348252760
13 3 8.0099164549 5.3660501621 2.3841021056
14 2 7.1403708795 4.9333693191 2.4142537443
15 2 7.8216554477 9.8956973541 3.5979309793
16 2 2.9182041345 7.6094488228 5.1904277457
17 3 3.8745605530 7.7883930178 5.3295154654
18 3 2.8641027693 6.6532487208 5.0615004524
19 2 6.9997577166 3.8939443066 5.5552345147
20 3 7.6533596356 3.9108709262 6.2833275439
21 3 6.1337675528 3.9132341491 6.0740855747
22 3 8.9434325537 9.9098579146 5.7904358883
23 3 7.2162893398 3.9654881174 2.4733591540
24 2 8.9218602566 9.9123084228 6.7581799659
25 2 7.9023251314 8.4261071134 9.5690312479
26 3 8.8659635179 8.3010961737 9.5896669840
27 2 10.0682348011 6.6712935014 6.8151973236
28 3 8.9905432859 6.5997619786 7.0721818395
29 3 10.0705300024 7.6258708055 6.6073329844
30 3 8.8049594905 9.8332683089 3.6257333018
31 2 5.5627965155 5.9553657981 4.2974162805
32 3 5.1409266578 6.5902047335 3.6907539381
33 3 6.2777950898 5.5955467522 3.6241857415
34 2 2.9186866743 4.9613911599 6.2454427041
35 3 2.9008352370 4.0181376932 6.5064389563
36 3 2.0442220071 5.2636835038 6.5673210188
37 3 7.5673945568 9.8979870741 2.6474243268
38 2 4.0451394088 2.4479933082 7.1979546016
39 3 4.2364747450 2.5401814937 8.1696220728
40 3 4.0110979313 1.4982644773 7.0284510598
41 3 6.5283120437 7.3287907222 9.7148732391
42 2 7.9626752893 3.9571269920 8.4196616884
43 2 8.9540229346 6.9836818719 2.4759453372
44 3 8.7803600272 6.9628620015 3.4951692171
45 3 9.9187780259 7.0319397016 2.3363794271
46 3 5.5680883061 6.5910896199 8.4980435711
47 2 5.8603218168 6.6371903126 9.5467242568
48 3 7.8893114403 9.9021646078 6.9461160492
49 3 8.9384865519 3.9196598835 8.3954637213
50 3 7.7776755746 8.5763953341 8.5520680892
51 3 7.7432496274 4.9311488091 8.3988825482
52 2 6.4874507077 9.9264748043 7.5284271568
53 3 5.8161936691 9.8673670752 6.8165224594
54 3 6.0390226687 9.8786853346 8.3892609393
ITEM: TIMESTEP
5
ITEM: NUMBER OF ATOMS
54
ITEM: BOX BOUNDS ff ff ff
-34 34
-34 34
-34 34
ITEM: ATOMS id type x y z
1 1 6.4272930090 6.7468736025 5.9361799293
2 2 7.5628351868 6.5657651563 7.3486690086
3 3 8.8449022591 6.4547994266 5.3088967613
4 2 5.6933366069 8.3800974554 5.5074475074
5 3 7.1835007137 6.5800910994 8.2908734094
6 2 5.2435093021 6.1664662738 7.0145364928
7 3 4.2704190335 6.0754523271 6.8377110393
8 2 7.9430157555 6.6616147968 4.9511292130
9 3 6.2352988879 8.6153983436 4.7543665083
10 2 5.3878914212 3.9038298014 9.5703960519
11 3 6.3302442156 3.8805464978 9.5469063738
12 3 5.3958744266 4.9083517755 9.6075820432
13 3 8.0377185065 5.3735870559 2.4517173450
14 2 7.1916728496 4.9231822217 2.3871008190
15 2 7.7635048028 9.8933857870 3.5680124708
16 2 2.9635422903 7.5842817002 5.1985192588
17 3 3.9354840918 7.7385580948 5.2002524374
18 3 2.9582253890 6.6136156105 5.1446461757
19 2 6.9524965000 3.8874167248 5.4636314520
20 3 7.4669944830 3.8667596026 6.2976449769
21 3 6.0145282914 3.8668477752 5.8262629149
22 3 8.8683634612 9.8762975816 5.7524985170
23 3 7.3182363216 3.9635959960 2.4467238838
24 2 8.9192847031 9.8682166683 6.7177320277
25 2 7.9131834556 8.4194209371 9.5165216710
26 3 8.8682598875 8.2764187645 9.6255491913
27 2 10.0650135674 6.6019975852 6.8031573183
28 3 9.0678973091 6.5323119280 7.1329973774
29 3 10.0523984938 7.5204001475 6.4683384742
30 3 8.7637586588 9.9025000927 3.5523389018
31 2 5.5959426511 5.9485457422 4.2511394226
32 3 5.2787405223 6.5942028820 3.6224335101
33 3 6.2778183400 5.4440347471 3.6364462448
34 2 2.8712621813 4.9400799699 6.2884140837
35 3 3.0903286117 4.0091356505 6.4499481230
36 3 1.9849475759 5.0950683372 6.6091898879
37 3 7.6609454181 9.8703635145 2.5922725066
38 2 4.0742821265 2.4453219207 7.2062072044
39 3 4.1318042128 2.4309570505 8.2047137041
40 3 4.0871707120 1.5098424731 6.9307665889
41 3 6.4407150795 7.4645301440 9.5868054914
42 2 7.9914321532 3.8987240150 8.4199791670
43 2 8.9785406565 7.0684919184 2.4528210695
44 3 8.8617253248 6.9178636292 3.4825635716
45 3 9.9677626260 7.0710088907 2.4546977782
46 3 5.6244056673 6.5656376910 8.5985561445
47 2 5.9254108509 6.6220071696 9.5619666906
48 3 7.9071606468 9.9212448745 7.0087646162
49 3 8.9729444275 3.8547161356 8.4111192528
50 3 7.8700275329 8.3754431814 8.4787685551
51 3 7.8814021963 4.8884416526 8.3919242911
52 2 6.4765825105 9.8879521697 7.5696837822
53 3 5.8026851158 9.8537268593 6.8619188422
54 3 6.1218591306 9.9376216539 8.4556237345
ITEM: TIMESTEP
6
ITEM: NUMBER OF ATOMS
54
ITEM: BOX BOUNDS ff ff ff
-34 34
-34 34
-34 34
ITEM: ATOMS id type x y z
1 1 6.4332809674 6.7340441465 5.9389465646
2 2 7.5486411535 6.5549880885 7.4041350790
3 3 8.8545980252 6.4456676550 5.4679608638
4 2 5.6942692817 8.3595948573 5.4923864666
5 3 7.2337135773 6.3556479610 8.3682554169
6 2 5.1945103715 6.2168596667 7.0583669359
7 3 4.2140406139 6.1936651253 6.8876579056
8 2 7.9771300172 6.6636446524 5.0118877480
9 3 6.3883291196 8.5533658746 4.8587096743
10 2 5.3750787373 3.8620978446 9.5628404774
11 3 6.2864053631 3.8128150843 9.4016104991
12 3 5.1560937441 4.8306592490 9.5715881226
13 3 8.0222955298 5.4734902014 2.4157456970
14 2 7.2322722902 4.9179464636 2.4103945091
15 2 7.7196349789 9.8664508911 3.5017132676
16 2 3.0021058375 7.5286915248 5.1987500396
17 3 3.9409670566 7.8520889189 5.2495988616
18 3 2.9991417282 6.5624080250 5.2708941933
19 2 6.9005425689 3.8732608651 5.3843288824
20 3 7.2880016958 3.8748564364 6.2778277489
21 3 5.9213034246 3.8794441256 5.5945996224
22 3 8.8880096638 9.8557079802 5.7141133171
23 3 7.5426579503 3.9897496245 2.4437636344
24 2 8.9508060845 9.8665589306 6.6701891260
25 2 7.9291288084 8.4498471944 9.5005798300
26 3 8.9020850158 8.4045530848 9.5700299581
27 2 10.0597247803 6.5169052671 6.7911034986
28 3 9.0197576716 6.5607887256 7.0426728657
29 3 10.1987602342 7.4343998976 6.4928726798
30 3 8.7076611141 9.8051416396 3.5287605764
31 2 5.6330028647 5.9367668344 4.1807189876
32 3 5.3197919600 6.6199134869 3.6068374226
33 3 6.2106008710 5.4206950336 3.5480250232
34 2 2.9271626569 4.9293882460 6.3399561384
35 3 3.0156646428 3.9594323375 6.4181516175
36 3 1.9677607512 4.9348928582 6.4756743204
37 3 7.5073416413 9.8596185756 2.5492038054
38 2 4.1169541055 2.4062523244 7.2230712255
39 3 4.1575796152 2.3990426445 8.2233536290
40 3 4.1414231666 1.5026440680 6.8336477433
41 3 6.3463800647 7.5078857840 9.6123280473
42 2 7.9813474612 3.8132916288 8.4280643792
43 2 8.9718975232 7.1421397382 2.4538465369
44 3 8.7429864886 7.1391828365 3.4919157415
45 3 9.9499297690 7.0644365969 2.3849935656
46 3 5.5603695266 6.5033865666 8.5586920570
47 2 5.9597851519 6.6073445456 9.5405168243
48 3 7.9949121616 9.8378059451 7.0408639929
49 3 8.9676770452 3.8725092147 8.4411240283
50 3 7.8453421959 8.2123181364 8.4942887283
51 3 7.7460705828 4.7670326317 8.3768141618
52 2 6.4666361314 9.8646526500 7.5802152302
53 3 5.7544906219 9.8288502234 6.9168737880
54 3 6.0224398056 9.8161419289 8.4294477395
ITEM: TIMESTEP
7
ITEM: NUMBER OF ATOMS
54
ITEM: BOX BOUNDS ff ff ff
-34 34
-34 34
-34 34
ITEM: ATOMS id type x y z
1 1 6.4630457017 6.7297649487 5.9422449697
2 2 7.5846122796 6.5586164980 7.4575590176
3 3 8.8781240505 6.4657762884 5.5509339404
4 2 5.7191018676 8.3428005615 5.4849414762
5 3 7.3139545821 6.4590624498 8.4468790808
6 2 5.1088085740 6.2457330523 7.1112070528
7 3 4.1527304439 6.2243779223 6.9003888032
8 2 8.0005196402 6.6857197702 5.0230243683
9 3 6.3827870041 8.5837327197 4.8375686778
10 2 5.3569588805 3.7949347539 9.5413162039
11 3 6.2770791399 3.8569741465 9.4846228385
12 3 4.9962025385 4.7185132190 9.5148463391
13 3 7.9144258168 5.6203461638 2.4576028791
14 2 7.2802310127 4.9028204608 2.4463082581
15 2 7.6865888593 9.8121694708 3.5045682487
16 2 2.9553258216 7.4766723038 5.1969707811
17 3 3.9158573197 7.7321201810 5.3411282945
18 3 2.9793990700 6.5193540476 5.3524002321
19 2 6.8457683931 3.8125426233 5.3262639920
20 3 7.1774396281 3.8277328603 6.2391957132
21 3 5.8557140332 3.8196007801 5.4434389704
22 3 8.9796662889 9.8022551179 5.6747412529
23 3 7.6149904103 3.9863666197 2.4984454667
24 2 9.0289817308 9.8230027682 6.6306282131
25 2 7.9418432372 8.4392303535 9.5005901927
26 3 8.9125825160 8.5051551786 9.4535888794
27 2 10.0866525552 6.4288423562 6.7706611718
28 3 9.0698145321 6.4725453033 7.1846781243
29 3 10.2139786023 7.3910712692 6.6638600365
30 3 8.6682486482 9.8175446875 3.4782217234
31 2 5.6305353614 5.9343380926 4.1039312105
32 3 5.3065103553 6.6217861818 3.5562096265
33 3 6.3663384581 5.4735245067 3.5693121586
34 2 2.9918269688 4.9015441901 6.3891834479
35 3 3.0966129872 3.9377312862 6.4588615683
36 3 2.0486178559 5.1685132834 6.3114832794
37 3 7.3843520386 9.7957544629 2.5776336274
38 2 4.1329811931 2.3779298428 7.2250376714
39 3 4.3355888808 2.4459684311 8.2119207970
40 3 4.1217017704 1.4020176567 7.0463953914
41 3 6.2803177005 7.4867957856 9.5702200136
42 2 7.9390000943 3.8546425280 8.4372939804
43 2 8.9778066405 7.2128045914 2.4771973564
44 3 8.9531870027 7.2601615463 3.5125973011
45 3 9.9446375524 7.0002385558 2.4104343762
46 3 5.5522214764 6.5869648109 8.4361894932
47 2 5.9528506564 6.5685698445 9.4719399810
48 3 8.0664552893 9.8250112758 6.8704013970
49 3 8.9274038116 3.8698262877 8.3909675729
50 3 7.7080717804 8.3515673002 8.5085296715
51 3 7.6101069682 4.7856351564 8.4379519533
52 2 6.4470138854 9.8332906871 7.5572380466
53 3 5.8517167781 9.7687543591 6.7886358719
54 3 6.0179589003 9.8375986498 8.4185328432
ITEM: TIMESTEP
8
ITEM: NUMBER OF ATOMS
54
ITEM: BOX BOUNDS ff ff ff
-34 34
-34 34
-34 34
ITEM: ATOMS id type x y z
1 1 6.4956582206 6.7294760867 5.9704164916
2 2 7.6524802151 6.5699646759 7.4672857130
3 3 8.9617263862 6.5454989734 5.3883918188
4 2 5.7566369636 8.3402817055 5.4837658836
5 3 7.2418940111 6.6994475220 8.3982346058
6 2 5.0830495943 6.2645466968 7.1233887268
7 3 4.1608029080 6.1140102292 6.9112096313
8 2 8.0101649259 6.7092911378 5.0092790224
9 3 6.2512965599 8.5602408820 4.6993230197
10 2 5.3250600778 3.7675616077 9.5234974309
11 3 6.2471108580 3.7974733425 9.5914392300
12 3 5.1207548515 4.7434820961 9.5066761112
13 3 8.0902189973 5.4551553838 2.4550012305
14 2 7.3226882228 4.8895832202 2.4399054646
15 2 7.6554263943 9.7926872236 3.5310384060
16 2 3.0065105559 7.4144215019 5.1985345810
17 3 3.9913749481 7.6434255033 5.3286440384
18 3 3.0464039869 6.4424253602 5.2502023918
19 2 6.7960529266 3.7858845191 5.2932739032
20 3 7.0964999101 3.7670964448 6.2150878259
21 3 5.8068602172 3.7891407271 5.4206606552
22 3 8.9921715766 9.8034274254 5.6326501747
23 3 7.6836794567 3.9757915271 2.4806198190
24 2 9.0267469922 9.7841698259 6.5854164888
25 2 7.9411683748 8.3997385820 9.5237050929
26 3 8.9182251445 8.3556491621 9.5490560144
27 2 10.1022808302 6.3477186235 6.7727465343
28 3 9.1361844085 6.2602348541 7.1195417473
29 3 10.1348010361 7.3223962822 6.8578679188
30 3 8.6308281748 9.7679760757 3.4726858053
31 2 5.6103803509 5.9384680673 4.0196804216
32 3 5.2462381514 6.6572505994 3.5517048233
33 3 6.3390265114 5.5345622845 3.5037687713
34 2 2.9976006959 4.8880533000 6.4186581320
35 3 2.9842714397 3.9308473832 6.5991637667
36 3 2.0297458599 5.0362823084 6.3482175945
37 3 7.4396989613 9.8119972106 2.5791098089
38 2 4.1395976943 2.3871216658 7.2427511531
39 3 4.4087448866 2.5648587931 8.1972720515
40 3 4.0777825576 1.3948098271 7.2288761852
41 3 6.2408092004 7.4390258057 9.6253421511
42 2 7.8777981153 3.8130495190 8.4688349347
43 2 9.0171495730 7.2769336322 2.4834221577
44 3 8.7796284793 7.1838217161 3.5065308801
45 3 9.9279973668 6.8932209880 2.4295483834
46 3 5.4453749761 6.4503322569 8.5158393613
47 2 5.9118079573 6.5294532467 9.4765815359
48 3 8.0971702011 9.8225326434 6.8568654440
49 3 8.8714669634 3.7687999293 8.5117258915
50 3 7.7637585515 8.4692701614 8.5227128068
51 3 7.8008778557 4.8044713141 8.3994375798
52 2 6.4449741142 9.8078008006 7.5092928365
53 3 5.8220611390 9.7595108588 6.7608039072
54 3 5.9300286781 9.8095616746 8.3386737271
ITEM: TIMESTEP
9
ITEM: NUMBER OF ATOMS
54
ITEM: BOX BOUNDS ff ff ff
-34 34
-34 34
-34 34
ITEM: ATOMS id type x y z
1 1 6.5341495577 6.7430483615 6.0265066631
2 2 7.6991921056 6.5872620267 7.4263627492
3 3 8.9165657131 6.6048335360 5.4502282991
4 2 5.8030819323 8.3547142676 5.4832020966
5 3 7.3447590682 6.5278082234 8.3917169193
6 2 5.1396520968 6.2816828238 7.0876291253
7 3 4.2467339204 5.9394515833 6.8752742340
8 2 7.9994458394 6.7395342929 4.9470460041
9 3 6.1518533323 8.4536527259 4.6052131266
10 2 5.2984238085 3.7885554578 9.5589536180
11 3 6.2158088107 3.6839590619 9.5003590250
12 3 5.2357144970 4.7856750377 9.6984460716
13 3 8.2103909932 5.3411723970 2.4382873236
14 2 7.3988851934 4.8523132784 2.4215485678
15 2 7.6308532638 9.7752819648 3.5581621788
16 2 3.0780136295 7.3399599463 5.1978099921
17 3 4.0587003862 7.5993499471 5.3085062326
18 3 3.0103144357 6.3872323125 5.0189017383
19 2 6.7524029286 3.7864350481 5.2889613741
20 3 7.1071019239 3.7689240795 6.1849848386
21 3 5.7691094206 3.7697450091 5.4319738139
22 3 8.9392978909 9.7298091560 5.5981429340
23 3 7.4430156201 3.8863657347 2.4920458221
24 2 8.9840912301 9.7653904145 6.5456502367
25 2 7.9426833680 8.3760214793 9.5744825871
26 3 8.8987297956 8.1797542483 9.6669905886
27 2 10.1123597311 6.2606789676 6.7870991897
28 3 9.0965668684 6.1619262216 6.9321924378
29 3 10.1631123534 7.2139608563 6.9975959302
30 3 8.5847811981 9.7089422210 3.6391943702
31 2 5.5597795565 5.9574110288 3.8438805997
32 3 5.2528595483 6.7681689608 3.5248402510
33 3 6.3876407706 5.5637874330 3.5235276236
34 2 2.9392864038 4.8528742891 6.4305747003
35 3 3.1847771935 3.9436246107 6.6980303642
36 3 1.9808884920 4.9408754041 6.5541167716
37 3 7.4870355065 9.7349366816 2.6027602579
38 2 4.1446186297 2.3889306075 7.2886278564
39 3 4.3319000740 2.4522691788 8.2738084951
40 3 4.0669890048 1.4004221929 7.1413518256
41 3 6.1224199419 7.4091885143 9.6893133742
42 2 7.8589082036 3.7425428722 8.4528771550
43 2 9.0607038658 7.3171901516 2.4798696310
44 3 8.8622504453 7.1506734036 3.5129234776
45 3 9.9727759577 6.9261514473 2.4388697949
46 3 5.5128620654 6.4495617107 8.5975714480
47 2 5.8339047102 6.4744733407 9.5846499539
48 3 8.0727088907 9.7350646924 6.8287153789
49 3 8.8424931740 3.7409390499 8.3798077247
50 3 7.9316988426 8.3444385771 8.5458804716
51 3 7.7222509818 4.7158363756 8.4783610787
52 2 6.4347156046 9.7679563618 7.4626233613
53 3 5.8326963981 9.7218942965 6.6960323944
54 3 6.0118483053 9.7355850194 8.3396168516
ITEM: TIMESTEP
10
ITEM: NUMBER OF ATOMS
54
ITEM: BOX BOUNDS ff ff ff
-34 34
-34 34
-34 34
ITEM: ATOMS id type x y z
1 1 6.5686156820 6.7817248836 6.0739289534
2 2 7.7224545715 6.5925964717 7.3886463108
3 3 8.9182248779 6.6545423250 5.3448329747
4 2 5.8229152370 8.3444152226 5.4798860782
5 3 7.5488071132 6.3606970236 8.3665989237
6 2 5.2297007636 6.2817212480 7.0356234494
7 3 4.3137271110 5.9313845851 6.8271669696
8 2 7.9664536191 6.7671707229 4.9014758779
9 3 6.2279310310 8.4780318259 4.6295935981
10 2 5.2870205503 3.7622772940 9.6684843927
11 3 6.2304187076 3.7891839858 9.6263885084
12 3 5.1710749331 4.7675061478 9.7067169219
13 3 8.3661258301 5.1032069330 2.4599114611
14 2 7.4564786706 4.8203159238 2.4223304542
15 2 7.6189436006 9.7534563029 3.6438506068
16 2 3.0150613348 7.2977931310 5.1923952030
17 3 4.0138122550 7.4051880927 5.3555660326
18 3 3.0402140622 6.3729918214 4.8666199363
19 2 6.7239735426 3.7394999798 5.3072433422
20 3 7.1152185154 3.7712371821 6.1884269349
21 3 5.7582026005 3.7698777352 5.5324697102
22 3 8.9997856390 9.7597091137 5.5801868232
23 3 7.5294534176 3.8521890145 2.4483230657
24 2 8.9859635645 9.7503146658 6.5338325039
25 2 7.9487948058 8.3551859456 9.6219047657
26 3 8.9204173624 8.2306531504 9.6452614686
27 2 10.1356865034 6.1785735300 6.7842580454
28 3 9.0926036929 6.1521638464 7.1017488151
29 3 10.2735878577 7.1080918100 7.0377795788
30 3 8.5868239151 9.7543908723 3.6310649963
31 2 5.4849349522 5.9624147856 3.5121208097
32 3 5.5216284090 6.9173157702 3.7279100382
33 3 6.4760183631 5.8757761134 3.6584454316
34 2 2.9335065472 4.8065399572 6.4450175456
35 3 2.9997844018 3.8452146935 6.6461005100
36 3 1.9983436074 4.9897700975 6.6966283321
37 3 7.4997346443 9.7592397164 2.6820555192
38 2 4.1535122354 2.3467244360 7.3378270099
39 3 4.1770945486 2.3441125351 8.3295204591
40 3 4.1571140349 1.4067821735 6.9852166609
41 3 6.1035807720 7.3485098660 9.6904655434
42 2 7.8737609425 3.7562323881 8.4098205851
43 2 9.0770105134 7.2999924740 2.4938526978
44 3 8.9783548086 7.2795371804 3.5156197279
45 3 10.0397167419 7.1240321369 2.3753589119
46 3 5.5728635384 6.3700383680 8.6000600653
47 2 5.7532158538 6.4283707011 9.6732913732
48 3 8.0579941881 9.7745938852 6.7381907825
49 3 8.8429496705 3.8200123546 8.4721050242
50 3 7.8227818562 8.3009409209 8.6291175509
51 3 7.4803451884 4.6422060147 8.3622084630
52 2 6.4326409683 9.7625052333 7.4382417895
53 3 5.7741975232 9.7085070540 6.7152306206
54 3 6.0653283090 9.7946907758 8.3446951813
ITEM: TIMESTEP
11
ITEM: NUMBER OF ATOMS
54
ITEM: BOX BOUNDS ff ff ff
-34 34
-34 34
-34 34
ITEM: ATOMS id type x y z
1 1 6.6109487657 6.8479116529 6.0898588690
2 2 7.7659640871 6.5677371310 7.3937558458
3 3 8.8637036099 6.5133042528 5.2822018258
4 2 5.8240614160 8.2797261443 5.4603055344
5 3 7.5858380287 6.5627297180 8.3868190327
6 2 5.2874390984 6.2400806862 6.9965190006
7 3 4.3199171313 6.0447754018 6.7896824685
8 2 7.9200045616 6.7758599843 4.8940354257
9 3 6.4375939606 8.5623366995 4.7875779023
10 2 5.2963704163 3.7309078252 9.6565446323
11 3 6.2342151375 3.7206291368 9.5873936644
12 3 4.9479809590 4.6205624267 9.4550575571
13 3 8.4408362865 5.0987472302 2.4000731385
14 2 7.5365441563 4.7835151515 2.4115610046
15 2 7.6262631495 9.7495140019 3.6822328571
16 2 2.9833425962 7.2735062803 5.1866385599
17 3 3.9545642780 7.4743544486 5.3808710977
18 3 2.9718755653 6.3876247616 4.7805478691
19 2 6.7124478934 3.7544916763 5.3554449663
20 3 7.1812800872 3.7138819688 6.1986634396
21 3 5.7628701150 3.7405680487 5.6327989423
22 3 8.9633025835 9.7292188716 5.5776690950
23 3 7.5376839923 3.8174477884 2.4707374964
24 2 8.9905105139 9.7517468833 6.5361652230
25 2 7.9338980749 8.3169111719 9.5924513382
26 3 8.9103065297 8.3945589600 9.5908860826
27 2 10.1354182791 6.1085237256 6.7789549711
28 3 9.0977916209 6.1587342605 6.9626083823
29 3 10.2946040467 7.0551631695 6.9322039912
30 3 8.5890162607 9.6939109326 3.6049414443
31 2 5.4440814007 6.0074154771 3.5827942211
32 3 5.3399527304 6.9995839776 3.4910858452
33 3 6.4118455549 5.6521900486 3.5106381738
34 2 2.9798585116 4.7771373029 6.4752700031
35 3 3.0354187285 3.8176597393 6.5834796807
36 3 2.0463814710 5.0734834868 6.5503757956
37 3 7.3531945008 9.7201348716 2.7686116300
38 2 4.1632525322 2.3104348016 7.3528762356
39 3 4.2673440510 2.3848823322 8.3419138210
40 3 4.2404817721 1.3264403378 7.1860153639
41 3 6.1944194585 7.2432337918 9.5754928313
42 2 7.8847945284 3.7628760879 8.4219667213
43 2 9.0086280817 7.2703954944 2.4863150338
44 3 8.7835233138 7.2305022763 3.4679009003
45 3 9.9866564941 7.3276802038 2.4735458301
46 3 5.4661825123 6.2460968532 8.5225338147
47 2 5.6896040706 6.4055977236 9.5544584755
48 3 8.0514925621 9.7494060633 6.7372811967
49 3 8.8590835600 3.7791307634 8.3822823119
50 3 7.7186892859 8.3621528783 8.6388861997
51 3 7.5691770888 4.6918543674 8.4738673593
52 2 6.4378755249 9.7680694011 7.4442921689
53 3 5.6957200993 9.7199238051 6.8058258378
54 3 6.0598996988 9.7351185445 8.3518300720
ITEM: TIMESTEP
12
ITEM: NUMBER OF ATOMS
54
ITEM: BOX BOUNDS ff ff ff
-34 34
-34 34
-34 34
ITEM: ATOMS id type x y z
1 1 6.6495400795 6.9036451660 6.0893713806