ITEM: TIMESTEP
0
ITEM: NUMBER OF ATOMS
110
ITEM: BOX BOUNDS pp pp pp
0 10.427000
0 10.427000
0 10.427000
ITEM: ATOMS id type x y z
1 4 -0.1607313392 4.6264815332 1.6421672993
2 4 3.8623855370 0.0894292357 1.1450889391
3 2 3.8033303285 -0.3723266630 4.1200113767
4 3 3.1053952016 -0.8008055682 4.6118803231
5 3 4.0991121160 0.4617557107 4.5776785040
6 2 0.5331939986 7.2946581587 10.6826631990
7 3 1.1829142498 7.6244692141 11.2578542476
8 3 0.8891049720 6.8600223124 9.8934394184
9 2 -2.4003499144 -3.4750344039 8.7063414264
10 3 -2.0625478408 -4.2884958073 9.1251035065
11 3 -3.1159147549 -3.7575024824 8.1285239921
12 2 3.0214592460 7.2725701442 1.9243810391
13 3 2.2364879311 7.4049548704 2.5266817645
14 3 2.9561471495 6.3677298250 1.6238373761
15 2 -5.8471839447 6.1380221954 4.7792370393
16 3 -6.1483152124 5.8116460014 3.9284273411
17 3 -5.2152892506 6.9003976405 4.5049656967
18 2 4.3705527768 1.8958995585 9.8911917949
19 3 3.7034040153 1.5595713911 9.2382601431
20 3 5.1053327331 2.2012014684 9.2905365164
21 2 -2.3403811226 8.0429780680 11.4170103919
22 3 -1.5463869158 8.0074372990 10.9102862147
23 3 -2.2084363117 8.5181173389 12.2635697484
24 2 5.8804300256 5.7450367734 7.5113247883
25 3 5.3468636055 5.5859333794 6.6476899440
26 3 5.3199580991 6.1112222757 8.2266548204
27 2 2.9891524970 3.4437364028 6.4457864301
28 3 3.0825511845 4.1070714381 7.1530040280
29 3 3.8415580571 3.0001821296 6.3714273137
30 2 -1.7645667603 1.2561967713 7.8685576958
31 3 -0.8141646360 1.2069846036 7.9973262618
32 3 -2.2059812076 0.4884791443 8.3382063121
33 2 -0.3806377385 6.5043599483 -3.7710602062
34 3 -0.1651462412 7.2327982922 -4.3608145756
35 3 -1.0406206620 6.7867292687 -3.1205087709
36 2 2.3881072178 -0.5788321420 9.8083335163
37 3 1.6209715162 -0.1264928602 10.2550540333
38 3 2.0984577521 -1.5157890120 9.6955161062
39 2 1.1180014828 1.1886930384 7.3900691247
40 3 1.5483127682 2.0522287353 7.2398313996
41 3 1.5286891467 0.7269819602 8.1321497727
42 2 -4.9173926132 9.5132487382 -3.4105509970
43 3 -4.5691396455 9.4443130407 -2.5068843585
44 3 -4.2402259032 9.1682571456 -4.0442885640
45 2 -7.5688361669 -2.7334161521 6.0501073106
46 3 -6.9332229899 -2.2567791910 6.6147686766
47 3 -6.9903659753 -3.1832708452 5.3471688132
48 2 6.7470051487 3.3612540426 8.6921862935
49 3 7.3399212241 2.8979501531 8.0825705457
50 3 6.5014475024 4.2099607084 8.2869141811
51 2 8.0293351791 1.7000659685 5.1570226271
52 3 8.1219617649 2.6908012111 5.1211030465
53 3 8.0480152776 1.5165902583 6.1492312015
54 2 -3.6343785354 1.3198010228 1.2501349709
55 3 -2.9357755698 1.9923831921 1.2235009601
56 3 -4.4140796311 1.7684721005 1.7162647147
57 2 5.1249022738 8.6327143581 1.0700320705
58 3 4.6297551402 8.0635145377 1.7081635759
59 3 6.0944072400 8.5394571104 1.2279933914
60 2 7.7650240721 4.7936529541 4.6198082266
61 3 6.9703432886 5.1816099329 5.0810728563
62 3 7.5377978041 4.8017676190 3.6687625704
63 2 11.3836192060 6.1464936737 13.9785178437
64 3 12.1721422681 5.4823388594 13.8695670063
65 3 10.9859712156 5.8436111864 14.7878145756
66 2 0.6731196506 9.4959439462 5.4027924223
67 3 1.4416628088 8.8360920599 5.6227685384
68 3 0.6305624535 10.2156206124 6.0789276820
69 2 7.2085258154 9.9210712858 9.4472854774
70 3 7.1582582173 10.5456026374 10.2018711540
71 3 7.2854516788 9.0125835714 9.7609827868
72 2 17.9958361669 5.0433237379 1.6919481927
73 3 17.9324683273 5.9810281635 1.5381651296
74 3 17.1018246766 4.7222349896 1.9557104670
75 2 -4.5058532599 -2.0894711071 4.5758435274
76 3 -5.2015851632 -1.3355271973 4.5186107691
77 3 -3.6942173444 -1.6676745240 4.1348444806
78 2 7.9830960039 9.7852103842 3.1142731866
79 3 8.9167702919 9.8179722368 3.3245391333
80 3 7.7507712557 10.5420030677 2.5917762192
81 2 4.5648710641 6.3551498637 -0.7315327315
82 3 4.6025613662 5.6393247422 0.0207146778
83 3 4.6207806381 7.2555177719 -0.3533215831
84 2 -1.0952162092 14.7154958073 9.6158304294
85 3 -0.4742820785 14.5032445518 8.9131618195
86 3 -1.9868854414 14.3070710210 9.5297418254
87 2 2.0065711238 6.0372646680 8.4761566274
88 3 2.0764809199 6.3994798058 7.5767296490
89 3 2.8678753127 6.2246205014 8.9246677908
90 2 5.0406677051 1.5261429456 5.6582485523
91 3 5.9864292172 1.5781761053 5.2947832819
92 3 5.1495389894 0.8426366491 6.3568574961
93 1 0.3812958282 1.0942923973 1.8353415296
94 1 3.2139608062 3.3924533503 1.8191261607
95 2 -0.9222750234 2.2252900715 2.3768375535
96 3 -1.1631719214 2.1952437109 3.3170271286
97 2 0.2006883530 0.8246159717 0.0802675785
98 3 -0.4824870923 0.1812055019 -0.2120407992
99 2 0.5984132505 -0.5157938266 2.6429876905
100 3 0.7298036402 -0.4344726643 3.6300897464
101 2 2.0342670509 1.7655495485 2.0243891400
102 3 2.6736374096 1.3287106714 2.6465034377
103 2 4.6691890626 4.3846149593 1.1921387589
104 3 5.2615299287 3.7089910569 0.8761672337
105 2 1.9180556969 4.1117104650 0.7199063786
106 3 2.1097199756 4.3932411284 -0.2377987677
107 2 2.8685318447 4.2855537374 3.3522755116
108 3 3.0645665605 4.0162204880 4.2350140963
109 2 4.5221348457 2.0429470510 2.4608647029
110 3 4.7043062031 2.3286565659 3.3694663957
ITEM: TIMESTEP
1
ITEM: NUMBER OF ATOMS
110
ITEM: BOX BOUNDS pp pp pp
0 10.427000
0 10.427000
0 10.427000
ITEM: ATOMS id type x y z
1 4 -0.1025888024 4.5690347505 1.6305825286
2 4 3.8345528601 0.0761415087 1.1857375063
3 2 3.7779599296 -0.3669184087 4.0368483004
4 3 2.9874833634 -0.6428600704 4.5656513495
5 3 4.1335823625 0.3689355281 4.5571375348
6 2 0.4386032054 7.3562525084 10.6519564218
7 3 1.1935641555 7.6736539894 11.2508876268
8 3 0.9071629382 6.8282251225 9.9426276046
9 2 -2.4403252906 -3.5322516739 8.6482713137
10 3 -2.0942773977 -4.2639802069 9.1810911842
11 3 -3.1944741350 -3.9825434830 8.2162501751
12 2 2.9901135648 7.2185104809 2.0340289222
13 3 2.4436747542 7.3236947736 2.8138959527
14 3 2.8405529566 6.2963522498 1.7318902837
15 2 -5.7938948960 6.1840551224 4.6630125139
16 3 -6.2577544537 5.7981814032 3.8700069127
17 3 -5.1334283987 6.9067103769 4.4002307082
18 2 4.3136879617 1.9027266171 9.8012568123
19 3 3.6558623456 1.6137509571 9.1787286852
20 3 5.1516972010 2.1474705674 9.3698673555
21 2 -2.3289232467 7.9726029777 11.3666337339
22 3 -1.3708456627 7.9593241221 10.9584048741
23 3 -2.1148555054 8.6095187000 12.0862001252
24 2 5.9418922889 5.6193232150 7.5424366386
25 3 5.4424735373 5.9019524092 6.7853795552
26 3 5.4020131155 5.9241925535 8.3839978296
27 2 2.8989654849 3.4401010217 6.4427457889
28 3 3.0767040021 4.2324218305 6.9737115467
29 3 3.7747303021 2.9710252055 6.2167829243
30 2 -1.6967675109 1.2306138984 7.8704329861
31 3 -0.6879712377 1.1791179151 7.9289279078
32 3 -1.9948135037 0.4640807542 8.4030814294
33 2 -0.3859521395 6.3995489488 -3.8831245190
34 3 -0.3690923387 7.2400325422 -4.4137126526
35 3 -1.0708571855 6.6278199583 -3.2239527789
36 2 2.2967468701 -0.5379011787 9.8342381694
37 3 1.3615120403 -0.2858368997 10.1249120159
38 3 2.2664957028 -1.4449335246 9.5411019648
39 2 1.0935383233 1.1722948777 7.4136171138
40 3 1.6829198407 1.9389412302 7.2464931096
41 3 1.5631182172 0.6610294349 8.1455362373
42 2 -4.9040399518 9.5052761398 -3.4784314220
43 3 -4.2830434472 9.7553241721 -2.7249395302
44 3 -4.3991980722 9.0083219262 -4.1787029824
45 2 -7.5694460198 -2.7193106265 6.1098246788
46 3 -6.8788374409 -2.1592226085 6.5399797559
47 3 -6.9858372110 -3.3748948492 5.5358818120
48 2 6.8197737370 3.2966872116 8.7468315384
49 3 7.3726695142 2.7094874386 8.1799598623
50 3 6.5380756815 4.0634119061 8.1612798263
51 2 8.0995734117 1.7656340842 5.1350917985
52 3 7.9122341075 2.7037693754 5.0498059734
53 3 8.4182507574 1.5675574925 6.0770698674
54 2 -3.6395195772 1.3451658002 1.1815439488
55 3 -2.9537505430 2.0004043968 1.4128452447
56 3 -4.4183130114 1.6877705438 1.7128658469
57 2 5.0830857196 8.5542535780 1.1049796142
58 3 4.6836441009 8.0914414298 1.8982443263
59 3 6.0026629583 8.6542507329 1.3962386111
60 2 7.7762175973 4.8565008033 4.6495544329
61 3 6.9798692379 5.2833578574 4.9657397315
62 3 7.7192915413 4.9007185582 3.6425640685
63 2 11.3861040877 6.1235532633 14.0263835793
64 3 12.1010375839 5.4089485466 14.0820411180
65 3 10.8495638136 6.0714024099 14.8786799179
66 2 0.6413737321 9.5017589721 5.4955140026
67 3 1.2204281691 8.8497347504 6.0108336041
68 3 0.6065064547 10.2161260951 6.1590394591
69 2 7.2180216828 9.9467436143 9.4797890360
70 3 6.8621124442 10.4694312530 10.2028290697
71 3 7.4347169663 9.0939505307 9.8836514955
72 2 17.9581763850 5.0562417396 1.6542606121
73 3 18.0798452131 6.0457566634 1.3813571416
74 3 16.9852753851 5.0440407941 1.6486889706
75 2 -4.4984277397 -1.9542700608 4.4386425877
76 3 -5.3549557561 -1.4574536849 4.1823597780
77 3 -3.7454334365 -1.4776395315 4.0575279982
78 2 8.0608558632 9.7624061498 3.0874744974
79 3 9.0493429707 9.9001129731 3.1787962918
80 3 7.7175710201 10.6067010357 2.6266563899
81 2 4.5734525020 6.3759029669 -0.6628856960
82 3 4.5516442960 5.5892208031 -0.0098122815
83 3 4.8117068668 7.1202423376 -0.0921023212
84 2 -1.0439567009 14.7729772653 9.5856382072
85 3 -0.6041774138 14.5917834024 8.7394344566
86 3 -1.8726494987 14.3315662013 9.4137304252
87 2 1.9859447848 6.0403619286 8.5122262792
88 3 1.9698218663 6.5821020244 7.6696405044
89 3 2.9308364236 6.0773900586 8.8815986695
90 2 5.1316091227 1.5038448662 5.6570851766
91 3 6.0744906244 1.5636368209 5.4241659070
92 3 5.1037062836 0.6944454013 6.2328721659
93 1 0.3528454866 1.0818536787 1.8339071404
94 1 3.2497133700 3.4195997187 1.8541465057
95 2 -0.8503258105 2.1736634201 2.3844768411
96 3 -1.0186954265 2.1011389666 3.3559249704
97 2 0.1801044012 0.7826631650 0.1080139043
98 3 -0.5999844245 0.2926821626 -0.1371961398
99 2 0.5545910206 -0.4774260823 2.6894532141
100 3 0.8700713304 -0.6295385235 3.5868463787
101 2 2.1422434626 1.7018157117 2.0580940565
102 3 2.3137167103 1.3311336353 2.9141658408
103 2 4.6368856034 4.4050988498 1.1777145742
104 3 5.2441235463 3.8357271694 0.6511321202
105 2 1.9453166467 4.0710220640 0.7181419012
106 3 2.0396561860 4.1436943415 -0.1946025134
107 2 2.8466558696 4.3188755932 3.2932633414
108 3 2.9920924116 3.8976231393 4.2017385863
109 2 4.5634519073 2.0185597565 2.4379575635
110 3 4.8393578962 2.1437975176 3.3546768261
ITEM: TIMESTEP
2
ITEM: NUMBER OF ATOMS
110
ITEM: BOX BOUNDS pp pp pp
0 10.427000
0 10.427000
0 10.427000
ITEM: ATOMS id type x y z
1 4 -0.0573114982 4.5193733618 1.6216641888
2 4 3.8054894899 0.0553576596 1.1995074806
3 2 3.7092047940 -0.3579639920 3.9432103363
4 3 2.9872828642 -0.6167022875 4.5332465922
5 3 4.1921422151 0.3930874739 4.3864056046
6 2 0.3527199499 7.4189713886 10.6190205022
7 3 1.0046580541 7.6000187095 11.2927243598
8 3 0.8572511884 6.8431511499 9.9882634416
9 2 -2.4317601860 -3.5763416905 8.5972364743
10 3 -1.9634913544 -4.2074533694 9.1971823463
11 3 -3.1029851869 -4.1224036734 8.0736966145
12 2 2.9364579301 7.1791645021 2.1503643360
13 3 2.4293755130 7.0530504585 3.0019997406
14 3 2.8918565484 6.2476815859 1.8031632375
15 2 -5.7398817714 6.2093723881 4.5696499428
16 3 -6.1903676208 5.5757091465 3.9307394704
17 3 -5.2917144556 6.9033672154 4.0998621237
18 2 4.2571393838 1.9044088583 9.7243422230
19 3 3.7836608724 1.7118055297 8.8851311558
20 3 5.1279703372 2.2219498537 9.4146279654
21 2 -2.2911091456 7.9142414878 11.3195638288
22 3 -1.4299484057 7.5634403594 11.0968829459
23 3 -2.1776911032 8.5062827509 12.1267811881
24 2 5.9202743879 5.4889153238 7.5757104003
25 3 5.5638647943 6.0910569490 6.8620600062
26 3 5.3859422351 5.8200540380 8.4027922801
27 2 2.8163666465 3.4104683738 6.4262866306
28 3 2.9720876310 4.3092444768 6.8101434389
29 3 3.6969665125 3.0969721872 6.3051098173
30 2 -1.6297435828 1.2118895572 7.8761022790
31 3 -0.6837650586 1.3448716629 7.9190474604
32 3 -1.9748668761 0.5588988437 8.5113629431
33 2 -0.3730710795 6.3367503911 -4.0008545137
34 3 -0.6341959798 7.2046765786 -4.3060879207
35 3 -1.0989637898 6.2473807245 -3.2978839033
36 2 2.2230589172 -0.4931611999 9.8062760628
37 3 1.2438530687 -0.2635620186 9.9601475522
38 3 2.2364426862 -1.4247900777 9.4694890513
39 2 1.0984217943 1.1554558923 7.4593309139
40 3 1.6931807926 1.8661241181 7.1174901564
41 3 1.5356165162 0.7744434112 8.2112937533
42 2 -4.8978735205 9.5054341844 -3.5064635826
43 3 -4.1096962851 9.5638826506 -2.9717680521
44 3 -4.5782946671 9.0583148885 -4.2967858509
45 2 -7.5492859552 -2.6778440331 6.1954316028
46 3 -6.8077302824 -2.1293467914 6.4660709155
47 3 -7.1562500181 -3.4175828240 5.7350544029
48 2 6.8889092537 3.2090272207 8.7937903658
49 3 7.3785220419 2.4291080773 8.4667085612
50 3 6.5694843125 3.6882201184 8.0142695115
51 2 8.1307820301 1.8553827301 5.0981076728
52 3 8.0460470416 2.8523953803 5.1766997033
53 3 8.6944244142 1.6608850605 5.8235049333
54 2 -3.6363669209 1.3622438844 1.1549467009
55 3 -2.8288510724 1.8810634281 1.3956192391
56 3 -4.4845581418 1.7018457457 1.5083691386
57 2 5.0658649724 8.4768484391 1.1674578657
58 3 4.5263634921 7.8742288569 1.6836282863
59 3 6.0257105176 8.4483068917 1.3298999421
60 2 7.7867081296 4.8868305263 4.6667645293
61 3 6.9297398768 5.3336980092 4.8404105271
62 3 7.8623132983 5.0463167544 3.7438914209
63 2 11.3522084527 6.0892965638 14.0844201902
64 3 11.9109562595 5.3052492760 14.2096802264
65 3 10.8446537333 6.1816647508 14.8699473895
66 2 0.6120199601 9.4825168830 5.6089652136
67 3 1.1510857304 8.8510059095 6.0201617595
68 3 0.7122997190 10.3197570400 6.1025254126
69 2 7.2104208387 9.9673285326 9.4777819667
70 3 6.9090278724 10.6007756428 10.2008691031
71 3 7.6111189390 9.1481714646 9.9953752290
72 2 17.9227683621 5.1065630500 1.6144527741
73 3 18.2574381031 5.9393229251 1.3162953993
74 3 16.9913861722 5.0252471121 1.2661261753
75 2 -4.4828767255 -1.8132523043 4.2892158519
76 3 -5.2537528582 -1.3618507764 3.9961773033
77 3 -3.6777392470 -1.4380893882 3.8569617302
78 2 8.1277993921 9.7334562188 3.0310951489
79 3 9.1140368597 9.8828599235 3.1442549059
80 3 7.7930604739 10.5826206099 2.7361452275
81 2 4.5798741049 6.3561136800 -0.5924725128
82 3 4.5044494859 5.6248401733 0.1237369251
83 3 5.0592384846 7.1281947292 -0.1489464906
84 2 -0.9993523977 14.8384448493 9.5476488992
85 3 -0.5426961294 14.7795490455 8.6914773048
86 3 -1.8851813639 14.3302908625 9.4406260494
87 2 1.9899724692 6.0301203064 8.5570333385
88 3 1.8147392892 6.6058626037 7.8183502453
89 3 2.8266479754 6.3434736707 8.8741620469
90 2 5.2199970869 1.4568523280 5.6537057999
91 3 6.1593975001 1.6655279401 5.4875659857
92 3 5.2930861415 0.5960157428 6.1712800729
93 1 0.4170554192 1.0396955598 1.8310001146
94 1 3.3121121665 3.3877595993 1.8444262845
95 2 -0.8123436374 2.1580155617 2.4228860917
96 3 -1.1753638373 2.0385364960 3.2958085733
97 2 0.1229616680 0.7069380796 0.1239349417
98 3 -0.8548534608 0.6811760231 -0.0441058390
99 2 0.4648896128 -0.4029790402 2.7059151051
100 3 0.6107591782 -0.6497174541 3.6371363850
101 2 2.1254311379 1.6695065364 2.0806029751
102 3 2.4802188561 1.3025584408 2.9560218468
103 2 4.6335951215 4.4484756408 1.1091748539
104 3 5.1149967417 3.8169009078 0.5633567619
105 2 1.9829912553 3.9924210697 0.7791353016
106 3 2.2398638293 3.9378071806 -0.2057088401
107 2 2.8450354096 4.3700194034 3.3279488045
108 3 2.8022074393 3.8092706357 4.0697819006
109 2 4.6091259649 2.0371873750 2.4064370218
110 3 5.0030430360 2.1032211807 3.2940127506
ITEM: TIMESTEP
3
ITEM: NUMBER OF ATOMS
110
ITEM: BOX BOUNDS pp pp pp
0 10.427000
0 10.427000
0 10.427000
ITEM: ATOMS id type x y z
1 4 -0.1094722385 4.4521666263 1.6265795201
2 4 3.7934824767 0.0750703568 1.1867025711
3 2 3.6057597700 -0.3106780162 3.8423980081
4 3 3.0390816708 -0.7861123605 4.4780459076
5 3 4.0536857830 0.4341136094 4.3084570864
6 2 0.2850379801 7.4503923203 10.5876494772
7 3 0.7944882922 7.6038681205 11.4103411822
8 3 0.6886569814 6.8493227250 9.9763445758
9 2 -2.3700154624 -3.6062538214 8.5187086695
10 3 -1.8618366399 -4.1273448608 9.1430548945
11 3 -3.0716056907 -4.1797342981 8.1920516097
12 2 2.8754656604 7.1381863200 2.2598613720
13 3 2.2677258641 6.9160140770 2.9904288822
14 3 2.9711356720 6.3213775118 1.7884036375
15 2 -5.6769912829 6.1799797575 4.5088307043
16 3 -6.1698595317 5.5558755750 3.9840250088
17 3 -5.4934419874 6.8966255659 3.8465765829
18 2 4.2105881627 1.9150970407 9.6415055881
19 3 3.9047051984 1.7670320053 8.7406448350
20 3 5.1355684782 2.2546541801 9.4715465491
21 2 -2.2371851972 7.8502702815 11.2908836131
22 3 -1.3587134394 7.7280148609 10.8914690594
23 3 -2.1976944201 8.3797919401 12.1052657415
24 2 5.8297774946 5.3682881926 7.5819659686
25 3 5.6002843708 5.9116071336 6.7945615367
26 3 5.3594596606 5.6868923110 8.4054121444
27 2 2.7423531008 3.3576230125 6.4093532900
28 3 2.6299572545 4.1970774783 6.8389553017
29 3 3.7220403618 3.1332696737 6.4038724662
30 2 -1.5979804490 1.2221809766 7.9050688374
31 3 -0.6588315934 1.2904698016 8.1768629867
32 3 -1.9447707699 0.3715907396 8.3359032631
33 2 -0.3518714632 6.3168471324 -4.1079693086
34 3 -0.6769700359 7.2714303035 -4.1631117876
35 3 -0.9189960053 5.8486839455 -3.5187341151
36 2 2.1727237222 -0.4649940070 9.7247164082
37 3 1.2815578553 -0.2317841075 10.1174503758
38 3 2.0913599927 -1.3775247598 9.4812734114
39 2 1.1473803958 1.1435031379 7.4882569389
40 3 1.5840926602 1.9385027400 7.1706539603
41 3 1.5892952955 0.7993753134 8.3241291186
42 2 -4.8885355367 9.4869242168 -3.5557189775
43 3 -4.2693345848 9.1708355803 -2.8408279303
44 3 -4.5941905897 9.2254337412 -4.4706581111
45 2 -7.5259744277 -2.6357976261 6.3035889493
46 3 -6.7189476589 -2.1598061992 6.6155082721
47 3 -7.1852271945 -3.1593373704 5.5615611228
48 2 6.9367051356 3.0727449202 8.8473422793
49 3 7.5260797818 2.3153892236 8.6001423475
50 3 6.7084109681 3.4803502659 7.9886824580
51 2 8.1574632758 2.0070038859 5.0379507992
52 3 8.3369056187 2.9508940547 5.1307608290
53 3 8.5049629743 1.5077792496 5.8644253869
54 2 -3.6082608192 1.3814766879 1.1155065872
55 3 -2.8644465452 1.9408138600 1.3203475765
56 3 -4.3315885857 1.8278590840 1.6033727021
57 2 5.0682060397 8.4090160980 1.2252930365
58 3 4.3799518774 7.8072347487 1.6610696714
59 3 5.9069828760 7.9747891595 1.4117667627
60 2 7.7885704859 4.9171452075 4.6781069875
61 3 6.8490559042 5.1997991284 4.8219602309
62 3 7.8371726412 4.9392446387 3.6559362249
63 2 11.2768043352 6.0439916985 14.1415116987
64 3 12.0022785140 5.3795475784 14.1065516899
65 3 10.8199796920 6.0086400496 15.0485369865
66 2 0.5819775668 9.4584328204 5.7058812717
67 3 1.3712272009 8.7510337429 5.8220519328
68 3 0.7419818820 10.1952042160 6.3367246850
69 2 7.2256371494 10.0128077932 9.4635678462
70 3 7.1005495111 10.6862679621 10.1686019447
71 3 7.5885189548 9.2425374400 9.8731630842
72 2 17.9205273016 5.1689701862 1.5705693146
73 3 17.9669591611 6.1142012405 1.3141432998
74 3 17.0256408633 4.8592227110 1.3782510656
75 2 -4.4494000585 -1.7026721112 4.1420397942
76 3 -5.1182957715 -1.0594493262 3.7724654390
77 3 -3.5949554079 -1.3635703896 3.7633838022
78 2 8.1889177157 9.6958600721 2.9740145943
79 3 9.1906150864 9.7332677684 2.9514147006
80 3 7.8581414068 10.5324458659 2.5834170156
81 2 4.6019706053 6.3294412285 -0.5956351140
82 3 4.6033031734 5.6642548322 0.1988941816
83 3 4.9905659751 7.1595858424 -0.3795233160
84 2 -0.9612706539 14.9084894578 9.5286326498
85 3 -0.3399871537 14.8681518396 8.7857585969
86 3 -1.8177610631 14.4910853258 9.3385159957
87 2 1.9907699639 6.0126815192 8.6170453631
88 3 1.6743513166 6.5023047424 7.8172357282
89 3 2.8241914200 6.4480571042 8.9595775231
90 2 5.3084121963 1.4289286633 5.6397030734
91 3 6.2458427940 1.7306005503 5.4230922766
92 3 5.4700568514 0.7201301659 6.2940422718
93 1 0.5044823252 1.0473889689 1.8238227471
94 1 3.3745542340 3.3386517792 1.8572625386
95 2 -0.7674660144 2.1870789882 2.4403521136
96 3 -1.2673920458 1.9615078925 3.2823455035
97 2 0.0198860135 0.6594586668 0.1548985083
98 3 -0.8170748194 0.9870735751 -0.1293092992
99 2 0.3374888897 -0.4472185860 2.7828213416
100 3 0.5584168876 -0.4000129455 3.7446554182
101 2 2.0911061132 1.6632774260 2.1105441361
102 3 2.5858785498 1.0978917050 2.6906292057
103 2 4.6370505308 4.4481436000 1.0317523137
104 3 5.1797339676 3.9103299052 0.4224742866
105 2 2.0440320454 3.8791323386 0.8317073655
106 3 2.2371215049 4.0048964438 -0.0574581959
107 2 2.8938552362 4.3274572285 3.3803626063
108 3 2.7434015689 3.8207300214 4.2505743882
109 2 4.6319753878 2.1042088904 2.3574851122
110 3 5.0422705519 2.4149355904 3.1703140493
ITEM: TIMESTEP
4
ITEM: NUMBER OF ATOMS
110
ITEM: BOX BOUNDS pp pp pp
0 10.427000
0 10.427000
0 10.427000
ITEM: ATOMS id type x y z
1 4 -0.1662179542 4.3973598637 1.6337905687
2 4 3.8336515552 0.1155940082 1.1581236038
3 2 3.4830706797 -0.2169333392 3.7530571452
4 3 3.1197358939 -0.9177018334 4.3347210578
5 3 3.9415293615 0.3326373018 4.4127527273
6 2 0.2391393497 7.4914329471 10.5687805815
7 3 0.7747866753 7.5192492176 11.3905627356
8 3 0.7639597609 6.7983002391 10.0383632651
9 2 -2.2929851933 -3.6284675786 8.4184316182
10 3 -1.8442228143 -4.0911482941 9.1589226640
11 3 -3.0910623227 -4.1891872137 8.3514679536
12 2 2.8117575512 7.0965827570 2.3182302365
13 3 2.0181910870 7.0572257946 2.8887494310
14 3 2.8858728206 6.2006691709 1.8561254473
15 2 -5.6160221304 6.1277762968 4.4757731261
16 3 -6.3312937759 5.5426107814 4.0608773638
17 3 -5.3750517051 6.9059575591 3.9610989421
18 2 4.1957301939 1.9312161508 9.5667361412
19 3 3.8476246496 1.6764503209 8.6961417210
20 3 5.1494121883 2.0728585750 9.4878638107
21 2 -2.2468907384 7.7838296357 11.2836737290
22 3 -1.3246128365 7.8860483584 10.8498212953
23 3 -2.1344688853 8.4875297371 11.9531113863
24 2 5.7343582681 5.2502713302 7.5588755073
25 3 5.3933890646 5.6438556911 6.7647803705
26 3 5.2279267527 5.6402460132 8.2719418830
27 2 2.6799810376 3.3035902011 6.4022740269
28 3 2.4735393101 4.0865919105 7.0226837086
29 3 3.6385810285 3.1841228835 6.4662953088
30 2 -1.5821533002 1.2268745222 7.9428263686
31 3 -0.5672665696 1.0599193506 7.8900337028
32 3 -1.9757856209 0.3604559296 8.1495018643
33 2 -0.2923635962 6.3298710386 -4.2006030820
34 3 -0.5845787033 7.1889780341 -3.9526580794
35 3 -1.0670024164 5.7964998261 -3.8628735954
36 2 2.1375223908 -0.4401830651 9.6577597237
37 3 1.2122400687 -0.1000862516 9.8458631678
38 3 1.9407945405 -1.3986261258 9.4598384481
39 2 1.2011776853 1.1276078776 7.5189740779
40 3 1.6991821892 1.9541320983 7.2393558061
41 3 1.7508960346 0.7608036768 8.2427566627
42 2 -4.8770172551 9.4305502131 -3.6076900341
43 3 -4.4029281806 9.0778019971 -2.8449251227
44 3 -4.4200965886 9.0484068548 -4.4299024300
45 2 -7.4774082835 -2.5904041747 6.3877288970
46 3 -6.7108276415 -2.1055376828 6.7815628357
47 3 -7.0165781896 -3.0459350368 5.5787277981
48 2 6.9898955334 2.9313767732 8.9032936606
49 3 7.6600151791 2.2905713659 8.5624702554
50 3 6.7153950131 3.5119227937 8.1575206447
51 2 8.1874664888 2.1416519621 4.9884778616
52 3 8.3565412153 3.1108045591 5.1507220614
53 3 8.3535499172 1.6844589361 5.8132885673
54 2 -3.5389245666 1.4127916892 1.1039143636
55 3 -2.7796743086 2.0409952334 1.3080861887
56 3 -4.3579600841 1.7886198939 1.5786558856
57 2 5.0534187441 8.3470656686 1.2763886555
58 3 4.3527451921 7.9601861710 1.8758047877
59 3 5.8749196966 7.9213259762 1.6203606478
60 2 7.7703759570 4.9356326017 4.6551338380
61 3 6.8586798956 5.1205987087 4.8583767845
62 3 7.8169908874 4.9300157599 3.6946803230
63 2 11.1907269137 5.9772602338 14.1781124129
64 3 11.9293327252 5.2669787801 14.1340028278
65 3 10.8374920477 5.9410972486 15.1000655443
66 2 0.5836389694 9.4215670323 5.7817367580
67 3 1.3550897516 8.8882522299 5.8257227946
68 3 0.8355151621 10.0414576163 6.5085455524
69 2 7.2411637580 10.0335671912 9.4352307210
70 3 7.0360668222 10.6085839985 10.1765715174
71 3 7.4893805922 9.1963947792 9.8986028648
72 2 17.9288958036 5.2252544190 1.5404540377
73 3 17.8406949071 6.2187644672 1.3128892970
74 3 17.0010707666 4.9438098978 1.7390400774
75 2 -4.4012856149 -1.6075214650 4.0260290661
76 3 -5.0013555395 -1.0100990550 3.5436734214
77 3 -3.4755743722 -1.3743225569 3.7503949863
78 2 8.2317704074 9.6602318818 2.8987611623
79 3 9.2491916450 9.7463086121 2.9478995853
80 3 7.9052497064 10.3749825934 2.2974088012
81 2 4.6017893614 6.3460783379 -0.6961597655
82 3 4.6418808757 5.6548666532 0.0823490811
83 3 4.8573156916 7.2025247120 -0.2391232462
84 2 -0.9146085335 14.9854550058 9.5545524916
85 3 -0.2523649084 14.7559690673 8.8908483401
86 3 -1.6641369040 14.5308743141 9.1500006234
87 2 1.9733098190 5.9751979613 8.6773229249
88 3 1.8145884414 6.4433049018 7.8427285085
89 3 2.9554810070 6.1381762153 8.8882730502
90 2 5.3818684640 1.4394540315 5.6197453829
91 3 6.2409412791 1.6777335408 5.2631655875
92 3 5.5576499390 0.7962608144 6.3403440660
93 1 0.4729178622 1.0792452662 1.8400776647
94 1 3.4035327299 3.3328599709 1.8975172008
95 2 -0.7093867800 2.2125522071 2.3978788679
96 3 -1.0454137196 1.9493166294 3.2457287662
97 2 -0.0421585272 0.6425185170 0.2313890648
98 3 -0.7736218720 1.1117784476 -0.2399455464
99 2 0.2598499703 -0.4857798465 2.8589878988
100 3 0.5079749648 -0.4211722973 3.7951307834
101 2 2.1686640908 1.6397597792 2.1319548624
102 3 2.3612119110 1.1261812610 2.9561399424
103 2 4.6572972561 4.4075041531 0.9988558952
104 3 5.1750332549 3.9248501264 0.3330495048
105 2 2.0260742762 3.7525616268 0.8514045321
106 3 2.3178218679 4.2566980713 0.0129005619
107 2 2.9749789856 4.2215266610 3.4259155505
108 3 2.9074150697 3.7503164415 4.2368981335
109 2 4.6374685783 2.1744858230 2.3319036981
110 3 5.0754416879 2.5399171746 3.1292249908
ITEM: TIMESTEP
5
ITEM: NUMBER OF ATOMS
110
ITEM: BOX BOUNDS pp pp pp
0 10.427000
0 10.427000
0 10.427000
ITEM: ATOMS id type x y z
1 4 -0.2349329249 4.4202771905 1.6397003876
2 4 3.8687414480 0.1071020333 1.1070022901
3 2 3.3829909837 -0.1229153089 3.7167453095
4 3 3.0844797161 -0.9560010893 4.1000284149
5 3 4.0553810860 0.2701287328 4.3367290607
6 2 0.2734540297 7.4903485241 10.5551340340
7 3 0.7969093922 7.6731498452 11.3496977073
8 3 0.8175457055 6.9211838714 9.9759278032
9 2 -2.2325414931 -3.6493305821 8.3126776153
10 3 -1.7309264958 -4.0762173165 9.0224351934
11 3 -3.0970323912 -4.0978853951 8.2394234835
12 2 2.7440624161 7.0788146296 2.3345401046
13 3 1.9200326986 7.0317191404 2.9375222493
14 3 2.7813437951 6.1639636561 2.1408390899
15 2 -5.5601486052 6.0667195950 4.5112921326
16 3 -6.2190141290 5.6928901227 3.8584409440
17 3 -5.2260116012 6.8872293824 4.0846697277
18 2 4.1946374612 1.9174922474 9.5183848349
19 3 3.8215725760 1.4992045018 8.7309164538
20 3 5.1560515801 1.9526214679 9.2824790575
21 2 -2.3162439124 7.7970786328 11.2802119832
22 3 -1.4300086744 7.5195948943 10.9780944220
23 3 -2.1234071483 8.3472108064 12.1248914535
24 2 5.6446244385 5.1238486884 7.5189837190
25 3 5.2088092112 5.4287396067 6.6452145261
26 3 5.2523174034 5.7367220566 8.2108610920
27 2 2.6365267737 3.2688594518 6.4372149408
28 3 2.4969554448 3.9589183533 7.0532292365
29 3 3.5985329593 3.1129648240 6.5310118339
30 2 -1.5462199507 1.2095118175 7.9035886147
31 3 -0.6867058101 1.0353690757 7.5931344150
32 3 -1.9412934981 0.4757774582 8.4293537163
33 2 -0.2381269866 6.3293183765 -4.2524028030
34 3 -0.3633097520 7.2877578861 -3.9589929388
35 3 -1.1468430228 6.0221366401 -4.3451431025
36 2 2.0945671812 -0.4280980544 9.5911620207
37 3 1.2813327779 -0.0223045398 10.0390804697
38 3 1.8375656641 -1.3361345721 9.4888071257
39 2 1.2629016958 1.1288405479 7.5691341564
40 3 1.7984156679 1.7535399097 7.0432197822
41 3 1.8074656126 0.5686703908 8.1442246251
42 2 -4.8744734760 9.3425776097 -3.6435936222
43 3 -4.2308463121 9.2743295823 -2.8963580912
44 3 -4.4500106713 8.9540026460 -4.3989097035
45 2 -7.3888669235 -2.5530785775 6.4262246350
46 3 -6.7460080559 -1.9361860470 6.7996918548
47 3 -6.8995987687 -3.1871441250 5.9571575749
48 2 7.0277149046 2.8340445542 8.9517504113
49 3 7.6685641749 2.3440917577 8.3884877711
50 3 6.6195721930 3.4648925778 8.3549787348
51 2 8.2122962803 2.2524724343 4.9489107621
52 3 7.9458850227 3.1882044929 5.0348089176
53 3 8.5340707164 2.0083839020 5.8457709463
54 2 -3.4505930324 1.4161740632 1.1349546307
55 3 -2.7317207775 2.0168382121 1.3075953656
56 3 -4.3569914427 1.7819000029 1.4631940309
57 2 5.0170608478 8.3066344050 1.3473893081
58 3 4.3299715055 7.8834209665 1.8616316603
59 3 5.8921210860 8.2879494449 1.7312819083
60 2 7.7461639742 4.9343943066 4.6362760898
61 3 6.7903474829 5.2089916741 4.7886994994
62 3 7.8287382930 5.1772916623 3.6919677708
63 2 11.1289910993 5.8739163565 14.1585849641
64 3 11.7789300136 5.1938113220 14.4306558073
65 3 10.7459041077 6.1852716920 14.9900975892
66 2 0.5952833936 9.3749395912 5.8494140454
67 3 1.3360572518 8.7324360872 5.9956014658
68 3 0.8028700559 10.1952637599 6.3013048717
69 2 7.2401122395 10.0104977227 9.4002873524
70 3 7.0813231609 10.7128825804 10.1180681967
71 3 7.4779081312 9.1399128511 9.8749534110
72 2 17.9211028325 5.2508200684 1.5788711184
73 3 18.1526691278 6.1423625978 1.2808653236
74 3 16.9319471316 5.1713222914 1.5843094498
75 2 -4.3477179782 -1.5513823570 3.9612768161
76 3 -4.9313523306 -0.9127366242 3.5472642911
77 3 -3.4237035722 -1.3100731517 3.6380327056
78 2 8.2374871120 9.6197938378 2.7892479573
79 3 9.2456935389 9.7948935568 2.9023996937
80 3 7.9562158140 10.4004389848 2.3074435571
81 2 4.5816702098 6.3678403699 -0.7900924671
82 3 4.5148388579 5.5778024944 -0.1319145221
83 3 4.7103193352 7.1589801002 -0.2201769118
84 2 -0.8589622328 15.0402012539 9.5839168674
85 3 -0.0603005332 14.7997084677 9.0735397948
86 3 -1.6697964208 14.4529922951 9.4128725617
87 2 1.9722791132 5.9355721376 8.7284472513
88 3 2.0156397886 6.4196290339 7.8762602191
89 3 2.8939635951 6.0381935539 9.0147816054
90 2 5.4154991808 1.4865853349 5.5990986416
91 3 6.2910366907 1.6819803565 5.1822178476
92 3 5.5810516942 0.6415929166 6.1006961517
93 1 0.4378621960 1.0904894289 1.8763844714
94 1 3.3786532808 3.3605405876 1.9166129246
95 2 -0.7000051242 2.2886611185 2.3791388283
96 3 -1.0950139868 2.2817143961 3.2930913736
97 2 -0.0585791047 0.6070890694 0.2734972622
98 3 -0.5887057122 1.1594696977 -0.2840933657
99 2 0.2733037992 -0.4286195995 2.8825835217
100 3 0.4931903626 -0.6025530473 3.8258110836
101 2 2.1943814775 1.5669342317 2.1766371761
102 3 2.5596409685 1.3307450081 3.0664661611