-470893.272 
-470901.218 
-470895.597 
-470897.600 
-470892.035 
-470901.354 
-470890.010 
-470887.409 
-470894.564 
-470903.555 
-470896.184 
-470890.760 
-470900.926 
-470903.405 
-470908.535 
-470905.074 
-470911.614 
-470906.073 
-470896.330 
-470901.438 
