-558871.284 
-558875.748 
-558878.639 
-558880.623 
-558882.129 
-558883.395 
-558884.560 
-558885.753 
-558886.912 
-558887.796 
-558888.051 
-558887.167 
