ITEM: TIMESTEP
0
ITEM: NUMBER OF ATOMS
474
ITEM: BOX BOUNDS xy xz yz pp pp pp
0.082649 17.381408 0.000000
0.218454 15.410614 -1.325351
-0.105079 16.682879 0.000000
ITEM: ATOMS id type x y z
1 1 4.9441604687 12.0369361914 1.8279536963
2 1 7.8565507815 2.1832183917 2.2607133079
3 1 3.5190223567 14.6578916786 1.9035549055
4 1 9.3263280531 14.8886675385 2.2370182795
5 1 5.0983177025 1.9091644132 1.8809969756
6 1 7.7587845933 7.3610218970 1.7598918309
7 1 3.6776596273 4.4320025799 1.8483219600
8 1 9.2209429599 4.8474781323 2.0310255246
9 1 4.8973578815 7.0381228071 1.6809195747
10 1 7.9486246607 12.2410743196 2.1149835447
11 1 3.4246916123 9.5983501894 1.8927783480
12 1 9.3459206140 9.7496462131 1.9781009150
13 1 13.6149762925 12.3333724485 2.0707954851
14 1 16.5087296747 2.2544996317 2.1650710041
15 1 12.2420888705 14.9984898929 2.3336487765
16 1 0.6374969067 14.9074809264 2.2510650588
17 1 13.5711497525 2.3255201899 2.1405496323
18 1 16.5242056310 7.3088640557 2.0602012080
19 1 12.0997167841 4.7775256482 2.0762481945
20 1 0.6836058112 4.7693275706 1.9647780741
21 1 13.6055647834 7.1972235539 2.0957478620
22 1 16.4008799509 12.4138755093 2.0931433505
23 1 12.2654044348 9.7126802348 2.0915800228
24 1 0.5788644350 9.9568756018 1.9118942733
25 1 3.4764962505 15.0528576609 6.8694722782
26 1 4.7227119101 12.3262924250 6.4437604129
27 1 3.5868798397 4.6854353736 6.6666332828
28 1 5.2216391270 2.2832772500 6.6961855126
29 1 3.5644472360 9.5883185163 6.6387659580
30 1 4.9439005770 7.0812818763 6.6263703197
31 1 12.0136987256 14.6864641667 6.9101606984
32 1 13.6444868682 12.2564110844 7.0959377173
33 1 0.5598452098 15.0110281408 7.0016922283
34 1 16.2120663490 2.3678652763 7.0662699656
35 1 11.9597932575 4.8371920617 6.9454656052
36 1 13.3871312117 2.2106988150 6.9227820951
37 1 0.5595526804 4.7120122180 6.9198776565
38 1 16.5597313872 7.4245444310 6.9696723815
39 1 11.9356461813 9.8259377263 7.0198163050
40 1 13.6065665484 7.3237353449 7.0149498374
41 1 0.7180482886 9.9084005672 6.8194302721
42 1 16.5209460579 12.3678786944 7.1351285848
43 2 4.9343208753 0.2405953076 2.8548890931
44 2 8.1539953585 13.8781731322 1.1706801266
45 2 9.1556613897 13.2487067070 3.3294899551
46 2 3.8425696773 1.1426552386 0.9221987010
47 2 2.2096390099 0.3430025607 3.1232016932
48 2 10.7911701942 14.2586597223 1.2766632679
49 2 6.3536909823 12.8151949696 2.8992246626
50 2 6.5639775238 1.1642889980 1.1505848461
51 2 3.5396793019 12.9265489890 2.9715541158
52 2 9.3192389080 1.4385474077 1.2032330412
53 2 8.0875972469 0.6187849212 3.2603927679
54 2 4.7710831872 13.7066814711 0.8613493666
55 2 5.0453898252 5.5201621505 2.8183963229
56 2 7.8649620430 3.8182207082 1.0828029865
57 2 9.1300559208 3.1565096692 3.1353979041
58 2 3.6500550575 6.0250354282 0.7899339995
59 2 2.3139682035 5.2578489318 2.9032400183
60 2 10.6061982742 3.9908117084 1.0440975325
61 2 6.1856393825 2.7318823377 2.9853427531
62 2 6.3904470290 6.4808561335 0.7392251277
63 2 3.6688946544 2.8906780335 2.8484554509
64 2 9.1930829768 6.4044836715 0.7540646943
65 2 7.7621793814 5.7831494365 2.7977318965
66 2 4.9573877096 3.5076374766 0.8183763093
67 2 4.8738856545 10.4312166525 2.8048690789
68 2 7.9346523367 8.9543958583 0.8590729081
69 2 8.9767756717 8.1209919425 3.0546959908
70 2 3.8384070315 11.0516922578 0.7358288053
71 2 2.2145791560 10.3323334597 2.9661677708
72 2 10.7828575272 9.0365797521 0.9353420477
73 2 6.2432826970 7.9411257952 2.7567539346
74 2 6.5241285331 11.4416630216 0.8581067374
75 2 3.4130935631 7.9180529387 2.8655858640
76 2 9.2801963042 11.4685029270 1.0370716613
77 2 7.9861549245 10.5820938731 2.9346710524
78 2 4.5565132688 8.5455144207 0.7088865485
79 2 13.6274578005 0.7466419956 3.2382725753
80 2 16.5077265470 14.0537305088 1.2496145499
81 2 0.5217191289 13.3416091094 3.2225254696
82 2 12.2716947832 1.2768993871 1.2703077707
83 2 10.8314448015 0.5126448251 3.3699700475
84 2 2.0059729799 14.0719951737 1.0632960817
85 2 15.0438029684 12.9602643360 3.2337619486
86 2 15.0174485781 1.5800822375 1.1606257737
87 2 12.2406528766 13.2385324501 3.2120764594
88 2 17.7967094455 1.3605808372 1.0987932004
89 2 16.6505991260 0.6874162194 3.2010272457
90 2 13.4813314334 14.0494501266 1.2359098980
91 2 13.4498280236 5.6966486239 3.1887700555
92 2 16.5701816925 3.9091309329 1.1625069101
93 2 0.5430626761 3.3353416320 3.1469568937
94 2 12.3414728841 6.3924969860 0.9256799738
95 2 10.6964245410 5.4659391343 3.0711220222
96 2 2.0975987945 3.9091242128 0.8687610912
97 2 14.9994233878 2.9603984761 3.1995371711
98 2 15.1531809054 6.4804507761 1.1130270015
99 2 12.3350470657 3.2143108150 3.0833247009
100 2 0.6044696887 6.3694216652 0.9029714584
101 2 16.8137190946 5.6582654984 3.1046465502
102 2 13.4123243593 3.8931601412 0.9966358304
103 2 13.4843828528 10.6477979248 3.1501970125
104 2 16.3598008794 8.9506697962 1.0094490544
105 2 0.4954320336 8.3217111396 2.9698430638
106 2 12.2235008517 11.4602656685 1.0595021649
107 2 10.8911216620 10.4513816470 3.0981956243
108 2 1.9446038819 9.2361322527 0.6846730988
109 2 14.9762288969 7.9330793109 3.1606050925
110 2 15.0132070225 11.6959854971 1.0881522714
111 2 12.1523898221 8.1252991301 2.9954771931
112 2 17.8842268905 11.6222647102 1.0104777870
113 2 16.7000500863 10.8326738147 2.9630344681
114 2 13.4922985552 8.8626360180 1.1004139303
115 2 3.4318013924 13.3217378735 5.6381170731
116 2 6.1819154729 12.7547435725 5.6270578777
117 2 10.4212249968 -0.1017459806 5.8351737630
118 2 4.9734550132 0.5811666786 5.8050232626
119 2 4.7568123183 13.9265364007 7.7445639528
120 2 2.0471308101 14.4648466297 7.9428878701
121 2 4.0060840085 1.4015998309 8.0081158335
122 2 3.6219348596 3.0154215916 5.8184331120
123 2 6.4061024115 2.9797845074 5.5523204979
124 2 10.7929419881 5.7789506372 5.7302028655
125 2 4.7645769423 5.5193399994 5.5631705121
126 2 5.1908206205 3.9093711584 7.6975050487
127 2 2.2124625206 3.9289651759 7.9124863225
128 2 3.6554039705 6.3102613761 7.7393568901
129 2 3.5381891265 7.9937131082 5.5556370784
130 2 6.2900058410 7.6791228138 5.2817377315
131 2 10.5904186572 10.5972679258 5.9740374401
132 2 4.7196777349 10.5476520710 5.4717345513
133 2 5.0311857822 8.6730234318 7.4758887783
134 2 2.1608299858 9.1325773700 7.6875587400
135 2 4.1169616705 11.2373908852 7.7210122408
136 2 12.1544989051 13.0265725090 6.0695346282
137 2 16.4599348010 0.6430438101 6.0035095809
138 2 14.9660730023 12.9116375579 6.0484304622
139 2 2.0399148374 0.5043962255 5.8838868486
140 2 13.3488555362 0.4530581298 5.9822976266
141 2 0.4734848152 13.3830948681 6.0366009929
142 2 0.2529382012 1.4713876111 8.1607682003
143 2 13.4006197574 13.8654451448 8.1421129829
144 2 14.8466026141 1.6217497760 8.0654242332
145 2 16.7044686639 13.9864158910 8.1324545115
146 2 11.9664300944 1.2772624623 7.7150545866
147 2 12.1729360712 3.2099668034 5.8049422051
148 2 16.5163007049 5.8261628051 5.9094525465
149 2 14.8075298161 2.9320983746 6.0407587299
150 2 1.9613362363 5.3689875899 5.7778459424
151 2 13.4759681485 5.7121124333 6.0645359921
152 2 0.2234302175 3.0679296120 5.9254145286
153 2 0.5106083922 6.3829936449 7.8901774501
154 2 13.1878712087 3.8048287458 8.0623555859
155 2 15.2305706044 6.6545774961 8.0477367385
156 2 16.5326411398 3.9255125947 8.0031954901
157 2 12.3156471318 6.2715602714 8.1197862259
158 2 12.1908192608 8.1906348835 6.0248736854
159 2 16.7500566657 10.7756094632 5.7794870861
160 2 15.0096825890 8.1485551125 6.0002075531
161 2 2.2027020573 10.5117371294 5.8023724994
162 2 13.3469729021 10.6300352788 5.9826787410
163 2 0.4595460761 8.2563013707 5.8570915292
164 2 0.6520190647 11.3992535854 7.9685135867
165 2 13.4770638337 8.8173101625 8.0044910103
166 2 15.1043904650 11.5945355700 8.1069589268
167 2 16.7335974951 8.9821590297 7.9591686383
168 2 12.4119416108 11.3278004374 8.1109406414
169 2 6.5615600173 1.3988589379 7.9026655334
170 2 6.4090572545 6.3463217851 7.6459861048
171 2 8.3110352427 9.3073803351 5.6124774316
172 2 10.8396607610 13.9147853909 8.4097360636
173 2 10.4009639360 4.1729075076 7.9155660843
174 2 10.8704810908 9.0164574092 8.4232992514
175 2 15.5760811596 13.0155129254 11.0585203164
176 2 5.4500237786 3.5266711262 10.4790936125
177 2 12.9175567124 3.3228834589 10.8231514952
178 2 14.3717756216 9.6533260370 12.0962463622
179 2 4.5253313099 9.5193570691 13.1728529136
180 2 3.7206557951 13.6837615364 14.6932334906
181 2 2.3622019196 12.4554438691 11.8143177066
182 2 8.7946381887 7.0628194891 8.2341395898
183 2 0.1979440093 11.0199686774 10.8093376730
184 2 4.5963948000 11.2584027529 10.7867384948
185 2 16.0418860742 8.3024694277 10.4971739787
186 2 9.0548262757 2.2433774274 6.2147586521
187 2 9.0281131850 14.8682980966 15.4533673476
188 2 6.3915835139 2.7956491353 15.2592785030
189 2 7.4366550928 -0.4447831369 11.3782604884
190 2 5.3864622876 11.7873635398 14.8395887641
191 2 1.8182833931 2.1917867526 14.9748391241
192 2 10.4930299918 12.2780305013 11.9648299862
193 2 11.8181657830 9.4907952671 11.0376356562
194 2 0.0495610881 3.7282723305 10.9024108920
195 2 10.7041496395 7.5276810011 13.3487059967
196 2 13.6266798111 4.5467675356 13.2232901267
197 2 9.4014560974 9.8542174763 15.0595408725
198 2 9.3112565462 0.6266224506 9.6666986674
199 2 1.7058256067 5.6328815094 12.3355984193
200 2 4.3708605693 1.0744312918 14.1641795477
201 2 11.7106317563 14.1271346188 14.3179829565
202 2 15.5198885239 0.6998801736 13.6288668885
203 2 2.6439181759 4.7543563439 15.1045936291
204 2 8.8134663354 12.4186066315 7.3742080500
205 2 1.9145506189 9.1894625232 14.6500101233
206 2 3.9332900534 6.0564098629 10.5427840414
207 2 7.3119300439 12.1292759351 10.4025202310
208 2 13.8869401303 12.8545774767 15.4786918449
209 2 16.2019913599 13.1158376732 14.1691459489
210 2 7.8911713612 12.2856137720 14.9801883984
211 2 5.2913937327 5.5299206613 14.8879372808
212 2 8.4870805766 1.7107613861 13.4563358318
213 2 11.6560644528 5.4985678344 15.0162038741
214 2 8.9462439773 4.4964778130 15.1272108090
215 2 6.0880902571 6.9059685336 12.5156547252
216 2 13.7660663808 8.4907821164 15.2705286647
217 2 0.0101775312 7.5960462542 12.9710093185
218 2 13.1572179403 0.9188822833 12.2601120529
219 2 0.7644186206 1.3901736042 12.1769364324
220 2 2.4287793570 14.8863240388 10.6981079992
221 2 14.5721921727 3.0120479572 15.5468076316
222 2 8.8194736045 6.6655290129 11.3176760426
223 2 1.4945662011 12.1719645501 15.1262223992
224 2 10.3706207779 3.1264221087 10.2436507195
225 2 5.0159594164 0.9441474069 11.3887097693
226 2 12.6937831334 13.5991908468 10.8609319786
227 2 8.3006156146 3.9448998143 11.7507022961
228 2 15.3406650377 6.4122556856 14.6641869059
229 3 5.8061733734 14.9261244592 2.7679462846
230 3 7.2803070311 14.2907667010 1.0162982671
231 3 10.0002722328 12.8137466120 3.6859650111
232 3 3.4679235353 1.5480759849 0.1318368250
233 3 2.3504579696 1.2586983542 2.9009844312
234 3 11.0679622686 13.3969347880 1.0583163053
235 3 6.2767721171 12.7750630279 3.8702714766
236 3 6.6957060206 0.8586029800 0.2278888263
237 3 3.6858428187 13.1631723783 3.9310426417
238 3 9.0654818009 1.2182545496 0.2769228818
239 3 7.4635286179 0.2550633328 3.9330409882
240 3 3.4253322329 13.6704623972 16.7027844977
241 3 5.9639335734 5.1881394940 2.8204933620
242 3 7.0033849223 4.2341839599 1.1457095773
243 3 9.1730832645 2.9210864462 4.0980822783
244 3 2.7151585975 6.3660624824 0.7486527916
245 3 2.4633771308 6.2242674481 2.9772641401
246 3 10.3933811553 3.0401747090 0.9606113291
247 3 6.2455985255 2.8645137974 3.9611574351
248 3 6.4697712591 6.2085514474 -0.2868990135
249 3 3.7496660259 3.0028524562 3.8380453548
250 3 10.1057003174 6.4801486111 0.5363312753
251 3 8.0457531505 6.0957985023 3.6701720726
252 3 4.7011225361 3.3504012959 -0.1216757311
253 3 4.6365667072 10.4160117950 3.7408608441
254 3 6.8547319498 8.9288143223 16.6413587199
255 3 9.8634367170 7.6875895687 3.1634205330
256 3 2.0324082632 11.3319837521 16.7692633415
257 3 2.4959792186 11.2787878508 3.0409745460
258 3 10.8438166616 8.0979435069 1.0842309554
259 3 6.0229272048 8.9055646706 2.6892035659
260 3 6.7628919406 10.5448748028 1.0738579291
261 3 3.6528484333 8.0012783091 3.8212537049
262 3 10.1557067672 11.8788692248 1.0078453042
263 3 7.8103324931 10.5879235736 3.8904062215
264 3 3.9897192526 9.0140093656 17.0748573591
265 3 14.4348608916 0.3094853992 2.9508019426
266 3 16.6223287779 13.7665082847 0.3277966495
267 3 1.4462008097 12.9527861232 3.2019966307
268 3 11.3713032762 1.7027901490 1.1122899579
269 3 10.6618005202 1.4903450795 3.3022041555
270 3 1.9104643092 13.1271416760 0.8531382033
271 3 15.1978153572 12.6271387826 4.1294496884
272 3 15.0818715991 0.5931282462 0.8324836776
273 3 12.5137601117 13.1919345660 4.1550786743
274 3 0.1836466864 1.3172778621 0.1391629540
275 3 16.5582950429 0.6058845005 4.1836351706
276 3 13.5228022221 13.9724922298 0.2796081638
277 3 14.2614150269 5.2562008166 3.3206844040
278 3 15.8683912041 4.5713308459 1.0336542780
279 3 1.4108430501 2.8939490207 3.1368191852
280 3 12.7518823730 6.0562340739 0.0868476984
281 3 10.7601688846 5.4452694248 4.1072720905
282 3 1.9040295664 3.0079323687 0.6714924438
283 3 15.2951229261 3.8767712866 3.3720739643
284 3 14.8902007130 6.3613908300 0.1783587919
285 3 12.3221131228 3.1584635210 4.1399318191
286 3 17.6182580351 6.3102163579 -0.0397209006
287 3 16.8551193228 5.7999892509 4.1011805879
288 3 13.2238242831 3.7644246104 0.0395474635
289 3 13.2801627315 10.6314982353 4.0943113068
290 3 15.4830363323 9.3906628283 1.1528289066
291 3 1.3808670654 8.0265372734 3.0967804142
292 3 12.1968948512 11.4056776603 0.1116052459
293 3 10.9348044381 11.4374344923 2.9551918633
294 3 1.7719993758 8.2986869041 0.5085568973
295 3 14.9768163082 8.9406140320 3.1522100354
296 3 15.0572588281 11.7048042576 0.1517961537
297 3 12.3303681810 8.3122547244 3.9801799361
298 3 17.8991240207 11.3578943587 0.1234840826
299 3 16.7580393555 10.7685397854 3.9404246599
300 3 13.6851683156 8.9268886267 0.1524325368
301 3 2.4807175445 13.0085581490 5.6938047088
302 3 6.4035319905 13.7113263849 5.7091993826
303 3 10.6174603460 0.1287946042 4.8503055583
304 3 4.8551419088 0.6619670268 4.7988944409
305 3 4.4725363040 13.5331588884 8.5817302651
306 3 2.2062139796 14.7782262793 8.8853889793
307 3 3.1771927638 1.8983501414 8.0738813920
308 3 2.9234070182 2.3259739573 5.8195401037
309 3 6.2148066723 3.9074500512 5.5962366697
310 3 9.8769671799 5.8006611742 6.0709088907
311 3 4.7562059393 5.4082506978 4.5868815101
312 3 4.9988481120 3.5724940773 8.5991183334
313 3 2.4175686172 4.2415585837 8.8461409045
314 3 3.9769760814 6.1773909779 8.6686124719
315 3 2.6568380006 7.5620096545 5.6343648115
316 3 6.3637990015 7.7798497073 4.1899315918
317 3 10.7330331705 10.5947656961 5.0262192375
318 3 5.6157765858 10.2278153528 5.2087147359
319 3 5.8204315161 8.9568813134 7.9682665996
320 3 2.0426417959 8.5364551153 8.4307209555
321 3 4.4661683820 11.3214028493 8.5537231581
322 3 11.3600878558 12.4232981537 5.9881330436
323 3 15.5586892010 0.2884867653 6.2928240973
324 3 14.8192990256 13.7888117890 5.6027864122
325 3 2.1393206856 0.5057118884 4.8857376934
326 3 13.4853206817 0.5519983066 5.0048044191
327 3 0.3644660728 13.1719723821 5.0796468379
328 3 1.0876832417 2.0298752808 8.2732386420
329 3 14.2051792685 14.4276068654 8.1466375896
330 3 14.7761408589 1.4235270370 9.0227025692
331 3 16.7144125332 14.0316290225 9.0904126839
332 3 11.5240298576 1.6131633282 8.4910410296
333 3 11.2696085922 2.9275467262 5.9484429534
334 3 15.6559947331 5.3261141219 5.8955103230
335 3 14.7725980894 2.7476620544 5.0877802351
336 3 1.8703956747 5.0935767247 4.8047853022
337 3 13.2181527220 5.8064091770 5.1132440610
338 3 17.4953811943 3.2168957794 4.9831608761
339 3 1.4205848297 6.6631894074 7.6631835129
340 3 14.0017831843 4.3959146359 8.0516920790
341 3 15.3651560154 7.2672943644 8.8292275915
342 3 15.9203038384 4.7552343104 8.1726234825
343 3 12.5811328337 5.9596071219 8.9824179657
344 3 11.5086800541 7.4712264411 5.8029029841
345 3 15.9859996473 10.2278373522 5.9273234308
346 3 15.0082676303 7.8836937972 5.0575679205
347 3 2.1841546745 10.3430440715 4.8179507917
348 3 14.0965174888 10.0339617756 6.0452712548
349 3 0.3624980144 8.2148947146 4.8939099994
350 3 1.4428726337 11.9446972761 8.0281133438
351 3 13.2224966339 8.9229334673 8.9227741194
352 3 15.1059979975 10.5930813493 8.1087645450
353 3 16.9687188135 8.7053186548 8.8586861850
354 3 11.6882939915 11.9008413772 8.4098073490
355 3 8.5146704153 8.8340850485 4.7626549884
356 3 7.0558612130 8.1731630602 5.6870030229
357 3 7.3800343486 6.6412281080 7.8988196771
358 3 6.2684703914 5.3374855023 7.7116223964
359 3 7.5508222985 1.2695646453 7.6158406121
360 3 6.3472261421 15.6369431369 8.1427411642
361 3 9.1263859343 9.8506239995 5.7848801075
362 3 11.3729483402 8.1718178692 8.5042338100
363 3 9.3311717643 2.8430304398 6.9901161191
364 3 9.9411766396 5.0292972259 7.9923552396
365 3 10.3997899384 14.5341743772 9.0695537916
366 3 10.0995321460 13.3526274473 8.0066665750
367 3 15.9753863668 12.1771866804 10.7936792337
368 3 14.6525921971 13.0223505167 10.8623915435
369 3 4.7099897240 4.0666978314 10.6952512502
370 3 5.1884468369 2.6115841071 10.6616679083
371 3 13.1985900984 3.3601129603 9.8123035878
372 3 11.9024571790 3.2099682075 10.7722353595
373 3 14.6235987228 10.6494743573 12.1572029347
374 3 13.4601634965 9.6892921963 11.5776094218
375 3 3.7227584508 9.3467137224 13.7165809770
376 3 4.8160838362 10.3426258366 13.5961550317
377 3 4.5547083673 13.2832911306 14.3325886389
378 3 3.8825668307 14.6322293335 14.3813740138
379 3 1.5564815984 11.7864436468 11.8068476176
380 3 2.2705640070 12.8129798029 12.7582084073
381 3 9.2910292132 7.8858295940 7.9115493662
382 3 8.8999524117 6.9892796110 9.2083815349
383 3 0.3923345181 11.3034417812 9.8788181494
384 3 -0.0591199498 10.0876530719 10.6268977932
385 3 4.5655554873 10.4774562469 11.3195254241
386 3 3.6899930643 11.5862956539 11.0161983966
387 3 16.3705877458 8.0336208282 11.3687402662
388 3 15.3453514775 8.9365907928 10.8065265119
389 3 9.9206593013 0.6132745949 6.3293895046
390 3 8.1599719351 2.5818398011 5.9904276930
391 3 8.4631572387 14.1365136054 15.1966459654
392 3 9.2301726714 14.7856247710 16.4104500860
393 3 7.2941964550 2.7494289176 14.9889203622
394 3 6.4302144958 3.1333155689 16.2052169152
395 3 7.3232507933 13.8321537381 10.9827150670
396 3 6.5020301518 -0.1026245467 11.4382696863
397 3 6.3909780420 12.0072492250 14.8614128210
398 3 5.3006138366 11.6396582175 15.8020366841
399 3 1.7661438256 3.2427529687 15.1176859010
400 3 1.3931307960 2.0911407099 14.1028101365
401 3 10.5578327124 12.8331022558 12.7720936607
402 3 9.5551967982 12.1917894619 11.6689251465
403 3 11.4555666514 9.3119389318 10.0941236759
404 3 11.4188079448 10.3555927157 11.2364747617
405 3 17.4151526164 3.8032442499 9.9295551911
406 3 0.4363545772 4.5433446451 11.1992666744
407 3 11.4096423983 7.0675733310 13.8364608088
408 3 11.0301686296 8.3524144539 12.9322739897
409 3 13.9861476097 3.8771031496 13.8272776063
410 3 13.3283725961 4.0891905527 12.3733849751
411 3 9.6405777063 9.0836124784 14.5639868553
412 3 9.5959713044 9.5578936988 15.9663903033
413 3 8.5905488010 0.4462299097 10.3411974197
414 3 9.6321986685 1.5468505210 9.9371484042
415 3 1.8922405514 5.4274242345 13.2587955601
416 3 1.2075844774 6.4493575850 12.4918961475
417 3 3.5296035490 1.4860645730 14.5367630647
418 3 5.1003489174 1.7546541860 14.4467757441
419 3 12.1125915179 14.9662079938 13.9922327419
420 3 10.9224698532 14.5809510017 14.7495334409
421 3 15.6129700926 1.4812887563 14.1931840714
422 3 14.7641267338 0.8051576558 12.9891061923
423 3 2.3625066576 5.2947495402 15.9353291631
424 3 3.5242151988 5.0768563737 14.8737171574
425 3 9.3345907717 11.6797049086 6.9425513266
426 3 8.0424010487 12.5473769002 6.8074709361
427 3 1.9609659431 8.9605589573 15.5730238505
428 3 1.7790701058 10.2071796561 14.6747360631
429 3 4.6740192688 6.3059102830 11.1287501666
430 3 3.1409259072 5.8102707458 11.1179716965
431 3 6.4281010737 11.8434094660 10.6338248187
432 3 7.4357034974 11.8960565513 9.4827516705
433 3 14.7296049264 12.7670645576 14.9936102243
434 3 13.1294349457 13.1196717211 14.8891569162
435 3 16.1426891766 14.0996651660 14.3376182034
436 3 16.2374053917 12.9935100410 13.1468644929
437 3 7.8455625449 12.1092320517 15.9270042888
438 3 8.3157160931 11.4202503445 14.6780755887
439 3 5.8690637136 4.7291898023 15.0739451410
440 3 5.7021679492 5.9840721494 14.1082482200
441 3 8.7078369013 1.0557076115 14.2080127608
442 3 8.0510939215 1.1227227386 12.7778453858
443 3 10.8146441920 4.9368740001 14.9811989154
444 3 12.3469402407 5.1565207127 14.4288658674
445 3 8.6983122116 5.4281332283 14.9718019219
446 3 9.1505099192 4.4242344649 16.0703521725
447 3 5.6697706687 7.7413900628 12.9165198349
448 3 6.9507745393 7.2067745553 12.1787498781
449 3 13.7812687198 9.0759072421 14.4293178027
450 3 14.3903399749 8.7973143330 15.9634474017
451 3 -0.6003650207 7.2268237560 13.7083975722
452 3 0.5644569292 8.2845320916 13.4881353091
453 3 13.0699009522 1.6614234459 11.6218182206
454 3 12.9005860989 0.0386666848 11.8057674134
455 3 -0.1306964355 1.1539292819 12.4973674428
456 3 0.5601270522 2.2717762041 11.8019292279
457 3 2.4465831377 13.9519673002 11.0197847390
458 3 1.7371343157 15.2969718156 11.2816056826
459 3 15.0026418707 3.3710332951 16.3215907521
460 3 13.9016996665 2.4703228497 15.9856939116
461 3 8.6812740413 5.7214875879 11.4915748280
462 3 9.7064624551 6.8789938388 11.8769285785
463 3 2.2498454971 12.8150306916 14.8958362704
464 3 0.6156643324 12.6499645801 14.9872277224
465 3 10.5348481846 3.6189433032 9.3896396347
466 3 9.5619429543 3.5354955461 10.7470283720
467 3 4.2735473927 0.6145727933 10.8168920839
468 3 4.7596370125 1.0667536204 12.3243897692
469 3 12.7991081968 13.5099496140 9.8748451222
470 3 11.7965182615 13.1899329959 11.0310703270
471 3 8.5348808998 3.2735491640 12.4516454100
472 3 7.3405259057 3.8092275268 11.5518026281
473 3 15.0816333666 5.8073329586 13.9442175683
474 3 14.5931922378 6.9928521688 14.7043670885
ITEM: TIMESTEP
1
ITEM: NUMBER OF ATOMS
474
ITEM: BOX BOUNDS xy xz yz pp pp pp
0.082649 17.381408 0.000000
0.218454 15.410614 -1.325351
-0.105079 16.682879 0.000000
ITEM: ATOMS id type x y z
1 1 5.0115488517 12.0529492500 1.8304988826
2 1 7.8579575972 2.2911251444 2.1932715511
3 1 3.5439027455 14.6290996232 1.8104213157
4 1 9.3231594018 14.8571670961 2.3118466229
5 1 4.9758493001 1.9516542222 1.9056953144
6 1 7.7794858298 7.3047460002 1.7452301320
7 1 3.6896531485 4.4696751815 1.8443444210
8 1 9.2529176096 4.8289253582 2.0853360945
9 1 4.9299291653 7.0556512518 1.6896909734
10 1 7.9129405429 12.3065316558 2.1578819194
11 1 3.5161082623 9.6037373285 1.7709011221
12 1 9.3699255711 9.7934426443 2.0757714256
13 1 13.6872103866 12.3159314132 2.1752366220
14 1 16.4751172022 2.2545889124 2.2431493159
15 1 12.3113567299 14.8203868035 2.2666514279
16 1 0.6520945080 14.8580908040 2.1468017775
17 1 13.5514316858 2.2898014673 2.0907028146
18 1 16.5128864887 7.3747187291 1.9888690334
19 1 12.1675111439 4.7908126994 2.0484554713
20 1 0.7486723390 4.7121124773 1.9787021767
21 1 13.5833906275 7.2941587404 2.1213623550
22 1 16.4641746271 12.3939828894 2.1581177467
23 1 12.2165007449 9.8078791813 2.1250602443
24 1 0.6326388903 9.9003009404 1.8982480059
25 1 3.5431975994 15.0737363844 6.8931659794
26 1 4.6022376935 12.4293725026 6.5681875196
27 1 3.5314377211 4.6956835142 6.8163957675
28 1 5.2085732855 2.2284511035 6.6337064670
29 1 3.5293660231 9.5549977388 6.5927152103
30 1 4.9554802818 7.1168510130 6.6143698268
31 1 12.0409892182 14.7347094277 7.0160983464
32 1 13.4796285585 12.1418991432 7.1057965400
33 1 0.5674786726 15.0586586330 7.0382220366
34 1 16.3367866693 2.3151244061 7.0583398726
35 1 11.9337093473 4.8487901511 6.9329920018
36 1 13.3502028589 2.2067271948 6.9293564534
37 1 0.6142931452 4.8099754151 6.8331268698
38 1 16.5257696035 7.3730608148 6.8324980227
39 1 11.9126476837 9.6850490435 7.1314671804
40 1 13.6640319149 7.2413080357 7.0296192245
41 1 0.7011378234 9.8003834626 6.8102249266
42 1 16.5604320805 12.3445553708 7.0885979223
43 2 4.8342788324 0.3642311635 2.9264728961
44 2 8.0561816687 13.9452007397 1.1526419814
45 2 9.1585035780 13.3167952156 3.3149684062
46 2 3.6346987514 0.9526907036 0.7889577303
47 2 2.1384447920 0.4145532353 3.0619470461
48 2 10.8147179530 14.1814490659 1.2793884832
49 2 6.3433792350 12.8210638519 3.0086894906
50 2 6.6088796655 1.2832269515 1.0113529346
51 2 3.5536201139 12.9292719537 2.8110355893
52 2 9.3528822418 1.2682585209 1.2355880789
53 2 8.1346768807 0.7312298585 3.2693141424
54 2 4.8146380030 13.6287270610 0.8782982159
55 2 4.9489865035 5.4361234238 2.7611087689
56 2 8.0381320062 3.7672458017 1.0779019647
57 2 9.1603188842 3.1886555251 3.2439854270
58 2 3.6851587728 5.9878189331 0.6688871608
59 2 2.2681735573 5.3387375062 2.9073008851
60 2 10.5743766406 4.1508784289 0.9804748777
61 2 6.3747457094 2.6999341535 3.0238602284
62 2 6.4838946992 6.5120703583 0.7173816734
63 2 3.7003866053 2.9480549786 2.9807991071
64 2 9.0561633266 6.3399727167 0.9197942163
65 2 7.8838438171 5.8197845789 2.9892895628
66 2 4.9532606243 3.5171078818 0.7836013499
67 2 4.7724345352 10.4617740962 2.8706942111
68 2 8.0474820186 9.0024723518 0.8639511701
69 2 9.0901448363 8.2500823167 2.9842858011
70 2 3.7244302945 11.1736373122 0.8039248305
71 2 2.1346440136 10.4257712932 2.9689495154
72 2 10.7481062247 9.0507695484 0.9125527462
73 2 6.1728024265 8.0859806526 2.6852176466
74 2 6.5853413689 11.4663244734 0.8590063757
75 2 3.4052033415 7.8125975053 2.6949502982
76 2 9.4406886087 11.3314509775 1.0454647532
77 2 8.0048748622 10.6633630834 3.0699772402
78 2 4.5644874486 8.6193721666 0.6631555965
79 2 13.5404764486 0.6663211302 3.2547867787
80 2 16.5451965892 14.0655241083 1.2082409134
81 2 0.5800973450 13.2136817643 3.1315374375
82 2 12.3284075457 1.2172957740 1.1141568596
83 2 10.8007230737 0.4192978120 3.2963323410
84 2 1.9801599055 14.1741783785 0.9500866189
85 2 14.9690267562 12.9484963602 3.2618367796
86 2 15.0553964971 1.6530883548 1.0949758165
87 2 12.3565638236 13.1218212402 3.2818832272
88 2 17.7007877768 1.3495434108 1.0905853996
89 2 16.7239071580 0.7186792416 3.2614938139
90 2 13.5623424020 13.9661421383 1.2394802976
91 2 13.3654402495 5.7607099110 3.1783623460
92 2 16.5080670453 3.9027424199 1.0682207785
93 2 0.5233401510 3.1218044211 3.1472516505
94 2 12.2962993834 6.3458734533 1.0590751153
95 2 10.6699929184 5.6003298168 2.9047310270
96 2 1.9896924667 3.8930903006 0.9442671486
97 2 15.0680428190 3.1300880882 3.1034046083
98 2 15.0696529649 6.5416553085 1.1261252236
99 2 12.3252212072 3.3084794577 3.1422206919
100 2 0.5462318970 6.4936000584 0.9068414746
101 2 16.7100692285 5.7933179780 2.9905893280
102 2 13.3196669315 3.7751795281 1.0087795677
103 2 13.5467764145 10.6632065268 3.0621512728
104 2 16.4225093013 9.0189989497 0.9379465230
105 2 0.4665569396 8.3296873144 2.9955751833
106 2 12.3290228260 11.4933346590 1.0316499285
107 2 10.7400776809 10.5492935595 3.0451748644
108 2 1.8845807247 9.1759004083 0.7577962730
109 2 15.0706308928 7.8315187479 3.2487292108
110 2 15.0602744240 11.7146749446 1.0222395599
111 2 12.2268726342 8.1497880514 3.0764743772
112 2 17.8500870117 11.6121076762 0.9684892927
113 2 16.7355286660 10.7923784503 3.0529814970
114 2 13.5547925562 8.8572913392 1.1320802988
115 2 3.3643967081 13.2985169840 5.6256221355
116 2 6.2077666196 12.9129636083 5.7322333520
117 2 10.3707784084 -0.0793940433 5.7615591641
118 2 4.7817950733 0.6016344697 5.7392486901
119 2 4.8093813257 13.9186696341 7.7620372690
120 2 2.1458875973 14.4473027832 7.9938256235
121 2 4.0056589838 1.4356790124 7.8540011985
122 2 3.7471246461 3.1220526652 5.8498043400
123 2 6.6255422389 2.9545832813 5.5893292014
124 2 10.8496122470 5.6981403511 5.6301163958
125 2 4.6464121556 5.6584552665 5.5972313069
126 2 5.1367047157 3.9410271598 7.6806255959
127 2 2.0187329411 3.9260097269 7.9038887269
128 2 3.7482367569 6.2704175875 7.7761407150
129 2 3.4977858524 7.9930306256 5.6427918789
130 2 6.1807749929 7.7909999829 5.3834071640
131 2 10.5769953753 10.6843014545 6.2012661341
132 2 4.7090832196 10.5953349795 5.5120606191
133 2 4.9239242538 8.7122634758 7.5098806290
134 2 2.1792128736 9.0293402008 7.7812695652
135 2 4.1043006414 11.1871745022 7.8134248087
136 2 12.1296738607 13.0474186686 6.0872789036
137 2 16.4103532978 0.6503505397 6.0122904957
138 2 15.0043203613 12.8740526419 6.0666945475
139 2 2.0094268870 0.5439767373 5.9726924167
140 2 13.4311201194 0.4345896886 6.0186638677
141 2 0.4743491170 13.3947991852 6.0364943066
142 2 0.2461921773 1.3831426835 8.1646959363
143 2 13.3756473701 13.8977293925 8.0120893418
144 2 14.8338542464 1.6108842643 8.0336842789
145 2 16.5751015809 13.9333030720 8.0731711505
146 2 11.9115029545 1.2437926533 7.7188367396
147 2 12.0924184708 3.2732405342 5.8351383280
148 2 16.6142878540 5.6308132642 5.7425046492
149 2 14.8076875724 2.8822236684 5.9330301369
150 2 2.0710358605 5.3034647360 5.8243748556
151 2 13.4245352689 5.6851233724 6.0165111115
152 2 0.3912390113 3.1460036764 6.0281839703
153 2 0.6791590072 6.4476157639 7.8271855376
154 2 13.1448051433 3.7422557060 7.9733765296
155 2 15.1187780325 6.7381433716 8.0637224245
156 2 16.5167721022 4.0877920258 8.0112577650
157 2 12.3057557567 6.3973768602 8.1012104539
158 2 12.1712588348 8.1124974959 6.0044057610
159 2 16.7260107008 10.8240513261 5.8143240818
160 2 14.9708522429 8.0867882527 5.9790718973
161 2 2.0926606802 10.5128136429 5.7954084124
162 2 13.3264276529 10.6407488271 5.9626060202
163 2 0.4951088209 8.2332755404 5.7434089600
164 2 0.6600139221 11.4245484425 7.9693510274
165 2 13.4399648215 8.8940786750 8.0030894367
166 2 15.1216676365 11.5855827901 8.1256936536
167 2 16.8639986379 8.9310852653 7.9200949188
168 2 12.2934794561 11.2263297794 8.2470073915
169 2 6.6079854549 1.4027631577 7.7190956392
170 2 6.3991406058 6.4172923112 7.5586831770
171 2 8.2595754288 9.3554826340 5.5203964471
172 2 10.7510820673 13.8310933940 8.3204147524
173 2 10.4936794918 4.1831885238 7.8555625262
174 2 10.8146736884 8.8567790849 8.2525068189