-2026487.838 
-2026490.949 
-2026483.892 
-2026502.403 
-2026471.964 
-2026484.845 
-2026457.549 
-2026495.216 
-2026450.131 
-2026472.601 
-2026461.463 
-2026438.592 
-2026446.248 
-2026442.647 
-2026398.093 
-2026397.640 
-2026374.909 
-2026402.554 
-2026371.491 
-2026363.965 
