-2023234.474 
-2023193.740 
-2023180.783 
-2023172.341 
-2023174.347 
-2023206.144 
-2023191.348 
-2023162.520 
-2023200.296 
-2023190.088 
-2023179.974 
-2023149.394 
-2023171.759 
-2023160.836 
-2023172.640 
-2023163.972 
-2023187.043 
-2023179.143 
-2023180.616 
-2023183.002 
