ITEM: TIMESTEP
0
ITEM: NUMBER OF ATOMS
474
ITEM: BOX BOUNDS xy xz yz pp pp pp
-0.035313 17.263446 0.0
-0.094195 15.097965 -1.293068
-0.170688 16.208350 0.000000
ITEM: ATOMS id type x y z
1 1 4.9528888814 11.8523109557 1.5982171437
2 1 7.7451797109 1.9424361218 1.9070118119
3 1 3.4510492484 14.4300720100 1.6007207488
4 1 9.2091012486 14.5550155752 2.0144143353
5 1 4.8503352268 1.6826354263 1.6534175380
6 1 7.7922249322 6.9917417637 1.5380075724
7 1 3.5693472033 4.2933818200 1.6111722060
8 1 9.1477929393 4.3677605110 1.7664859754
9 1 4.9779740697 6.9209756005 1.4403691265
10 1 7.8264430188 12.0232579601 1.8472409816
11 1 3.3592967620 9.4538258674 1.5090913894
12 1 9.3122500017 9.5789471836 1.7737461167
13 1 13.6031582229 12.3242023216 1.9641054234
14 1 16.5372274016 2.0454755429 1.8958506133
15 1 12.1596956058 14.8192524240 2.1884200533
16 1 0.6160701877 14.7375325065 1.7669650401
17 1 13.5665853562 2.2582810167 1.9343825626
18 1 16.4516470860 7.1098455492 1.7188292639
19 1 12.0777826634 4.6588182686 1.8853984354
20 1 0.6607614892 4.6672004132 1.5345195478
21 1 13.5579842796 7.2689101605 1.8633231366
22 1 16.4028975294 12.2235591664 1.7615461393
23 1 12.1449526690 9.7947285043 1.9603524502
24 1 0.4597220291 9.7172760933 1.7469665592
25 1 3.3500555886 14.5293513240 6.7032338651
26 1 4.8319087613 12.0493086133 6.4596822404
27 1 3.4625304189 4.3937978132 6.5473989417
28 1 5.0553822178 1.9115744593 6.6057142717
29 1 3.7175942491 9.3405420587 6.4745927891
30 1 5.0703330044 6.7468534715 6.3580703504
31 1 11.9291915565 14.5078070228 6.8196101570
32 1 13.4180845366 11.8625593818 6.7526482597
33 1 0.4869547523 14.6445834302 6.6669216855
34 1 16.4732863161 2.0512955020 6.6741429509
35 1 11.8556737884 4.6431109916 6.7446310472
36 1 13.4147310475 1.9750445069 6.7683312633
37 1 0.6548271032 4.5411640211 6.6750318393
38 1 16.5395491357 7.0805484048 6.7148314259
39 1 11.7957858187 9.4810511123 6.9057712905
40 1 13.5775313215 7.1784817807 6.9008403002
41 1 0.8461271658 9.5746720527 6.8036699618
42 1 16.3555566778 12.0568104032 6.4958858570
43 2 4.6937891095 0.0746926653 2.7298620612
44 2 7.9951568620 13.6950814566 0.8976674200
45 2 9.1115442428 12.8755540341 2.9463833876
46 2 3.5070590829 0.8778916672 0.6407996125
47 2 2.1089482567 -0.0565413271 2.9077960221
48 2 10.6897623897 13.9237846374 1.0652726509
49 2 6.2508856536 12.5828037990 2.7950607903
50 2 6.3900042342 1.0773179880 0.7441116946
51 2 3.3723745152 12.8266786359 2.6029661589
52 2 9.0571188418 1.0129566131 0.9381735943
53 2 7.9045897555 0.3927730384 2.9530542326
54 2 4.7871948991 13.5127923453 0.6873589075
55 2 4.8905554225 5.2909487964 2.5602610687
56 2 7.7944267739 3.4866011065 0.7079211084
57 2 9.0636528595 2.8712200496 2.8036366206
58 2 3.6532534485 5.8619665138 0.4511743135
59 2 2.2356926097 5.2658745888 2.6483589060
60 2 10.5943143134 3.7099931607 0.8591169162
61 2 6.2064718554 2.4961317551 2.8182638605
62 2 6.4301166587 6.4056175102 0.4118873225
63 2 3.4705034769 2.7087379650 2.6948527690
64 2 9.0272235199 6.0204060963 0.5457670592
65 2 7.7072406435 5.4271793701 2.6495482974
66 2 4.8630353876 3.3340714082 0.5902387040
67 2 4.6875522554 10.1813480215 2.5298311947
68 2 7.9895375126 8.6559315885 0.7096664507
69 2 9.0533109269 7.8469470475 2.8501622581
70 2 3.5866321678 11.0492860560 0.4804294675
71 2 1.9790227325 10.1949401332 2.7023913218
72 2 10.7903296382 9.0602574744 0.6280175706
73 2 6.2460417028 7.6499194223 2.5480164419
74 2 6.3973967524 11.2049911605 0.7193657064
75 2 3.5419387631 7.7669170035 2.4596082492
76 2 9.1559074956 11.0888306206 0.6880682080
77 2 7.9446842178 10.3752522398 2.8477888317
78 2 4.4846112931 8.5616076682 0.3179865593
79 2 13.4604601390 0.6075960256 3.0873493498
80 2 16.5432110141 13.9180017850 0.7957350891
81 2 0.5473839362 13.1631523922 2.8265430128
82 2 12.1215202200 1.2615954760 1.1024780527
83 2 10.6264947251 0.1823633869 3.1828500417
84 2 1.9370260910 14.0471219377 0.5571912717
85 2 15.0602844086 12.9871129562 2.8823694763
86 2 15.0112549024 1.4254596886 0.7963679804
87 2 12.2211116764 13.1386532247 3.0883531405
88 2 17.7626777723 1.2087485407 0.7320630998
89 2 16.6234296168 0.5196895224 2.8429666768
90 2 13.3549057667 13.8967276883 1.0317256053
91 2 13.2283205589 5.7472064592 2.9215920217
92 2 16.5796747337 3.7072786704 0.7044599317
93 2 0.6231512269 2.9980677184 2.7780240958
94 2 12.1969484398 6.2099168201 0.7279475282
95 2 10.5501109373 5.1955618223 2.7465348224
96 2 2.0240632922 3.7520677119 0.5236852938
97 2 15.1090140367 2.8708813125 2.8854835146
98 2 14.9180477211 6.3734183273 0.8852391000
99 2 12.3293617215 3.1327530658 2.9973075422
100 2 0.4555096297 6.2313419349 0.5326276370
101 2 16.7382692527 5.4729400183 2.6929244095
102 2 13.4798346219 3.7295009295 0.8593784351
103 2 13.3471760928 10.7289786108 2.8706168757
104 2 16.4565340337 8.7833224581 0.6091280901
105 2 0.4580422526 8.0601737553 2.6907932574
106 2 12.2470051569 11.4448381844 0.8284285945
107 2 10.5996417948 10.2908846961 2.9623313251
108 2 1.8703055954 8.9796443331 0.5338969202
109 2 15.1129579623 7.7032661358 2.9453741084
110 2 14.8615633854 11.6740718191 0.7946360227
111 2 12.2792177945 8.2688161809 2.8422139512
112 2 17.6172395146 11.3025942708 0.7067672383
113 2 16.5098403527 10.6056309909 2.6981315737
114 2 13.4971283105 8.8318516072 0.8923885398
115 2 3.4542036631 12.9063647969 5.5856374792
116 2 6.4764686309 12.6187600280 5.7962230752
117 2 10.4654482607 0.0503285824 5.6651363923
118 2 4.8922668395 0.1718007747 5.7153897655
119 2 4.7574858021 13.4926111881 7.6923903217
120 2 1.8891843294 13.8533865005 7.6753852975
121 2 3.6863052207 0.9087573426 7.6474251873
122 2 3.6072304959 2.7166769674 5.5996862293
123 2 6.5584310821 2.6064721127 5.7588257171
124 2 10.8757579625 5.5495004084 5.4357341929
125 2 4.8817996080 5.1276130118 5.5379922826
126 2 4.9325046411 3.4982069173 7.5635974257
127 2 2.0471990376 3.7295165992 7.5682666362
128 2 3.6838328779 5.9076526497 7.5029615061
129 2 3.6931938392 7.7989817041 5.3991716265
130 2 6.4849301744 7.0522793794 5.1790428513
131 2 10.3166609067 10.1188297163 6.0590008365
132 2 4.8819388495 10.5112166984 5.2879830240
133 2 5.1681273996 8.3715291780 7.1962557943
134 2 2.4108943265 9.0612688536 7.8490320531
135 2 4.2345129270 10.7782625981 7.6136267845
136 2 12.0255495487 12.8535203401 5.7519004760
137 2 16.4697395190 0.4041283497 5.5456157762
138 2 14.7567451392 12.6514614849 5.6718567390
139 2 1.9500929594 0.2078336002 5.6617518580
140 2 13.2663523740 0.2961850320 5.8040727554
141 2 0.3506845953 13.0855022599 5.5402409611
142 2 0.3577603433 1.0251452100 7.6997668537
143 2 13.2880216235 13.5401180204 7.7338823972
144 2 14.9174642380 1.4474950256 7.7882366879
145 2 16.2837472981 13.5423708019 7.5507759510
146 2 12.1672887298 0.8872185671 7.7288370198
147 2 12.1843709187 3.0316749436 5.6450789819
148 2 16.5399966545 5.4715435712 5.6849993949
149 2 14.8961068035 2.6641395717 5.7804098169
150 2 2.0826850623 5.1658238428 5.5790605175
151 2 13.4894378218 5.5884284537 6.0316707135
152 2 0.3881560724 2.9515512717 5.6824792123
153 2 0.6152055579 6.0981786413 7.6646665108
154 2 12.9656907753 3.5514460470 7.9136250162
155 2 15.0773248148 6.5424242087 7.8790852824
156 2 16.6129490838 3.5462477964 7.8415479919
157 2 12.0750064400 6.2671378887 7.9930006881
158 2 12.0973171643 7.8898490535 5.8627955422
159 2 16.7658054113 10.5541436191 5.4209572810
160 2 15.0297138109 7.8901328544 5.8429284457
161 2 2.2552238578 10.1596785510 5.6621724440
162 2 12.9541701908 10.4034796358 5.6194784654
163 2 0.5640445978 7.9972396045 5.7519122851
164 2 0.5684338265 11.2631799989 7.6016768111
165 2 13.4028323047 8.7869232478 7.8763735728
166 2 14.9656520261 11.1724498029 7.5333837062
167 2 16.8354580452 8.6710896382 7.7104816441
168 2 12.0620420946 11.1377579798 7.8153068694
169 2 6.1649654560 0.8229242928 7.9223908671
170 2 6.3251354358 5.7491161074 7.6823119792
171 2 8.0857620009 8.8714137234 5.1099234611
172 2 10.5520348749 13.7810380226 8.0134265524
173 2 10.2384223665 4.0061043576 7.6880110615
174 2 10.7346985774 8.6036040252 8.2364688591
175 2 14.7841049680 12.3234073884 11.2559289275
176 2 5.2734236691 2.9373293435 10.3521522869
177 2 12.3355503848 3.1750685926 10.5661846988
178 2 13.6442461635 9.7064380650 12.0581566301
179 2 4.2583797664 9.5057119382 12.4652353427
180 2 3.5029729510 13.5479490321 14.3904839564
181 2 1.7016704156 12.2145938486 11.5093341779
182 2 8.6843084129 6.6218705720 8.2806219340
183 2 -0.2902008441 11.1667961900 10.3066571215
184 2 4.0324620819 11.4027828338 10.1771182458
185 2 15.8941523674 8.7721573463 10.5270428614
186 2 9.2325510331 2.5038795601 5.7744248835
187 2 9.2157832451 14.5713094367 14.8607794177
188 2 5.7812515169 2.7912330326 14.5449551255
189 2 6.8426113089 -0.4073623548 11.5961493469
190 2 5.3356004301 11.4866895096 14.1773081034
191 2 1.4333895443 1.8821049908 14.2439542319
192 2 10.7171896374 12.0219833594 11.2606382955
193 2 11.2941149251 9.4626591365 10.4243497708
194 2 0.8533405079 3.2216003883 10.0476866641
195 2 10.0005586477 8.0468222032 12.1907841430
196 2 13.4064674036 4.3646456475 13.0383235379
197 2 9.2168939607 9.8445124452 14.3798182345
198 2 8.5021002421 0.4064848664 9.1905118233
199 2 1.4908208315 5.2271837538 12.0930606773
200 2 4.1375626795 0.8175599012 13.7700826621
201 2 11.1175130168 13.8799818416 13.2046324141
202 2 15.3168483749 0.7693286196 12.8258754396
203 2 2.8141533593 4.4393334829 14.4720009453
204 2 8.9031231374 12.2245243860 6.8002983168
205 2 1.4542373094 9.0051357328 14.1321728384
206 2 3.6455586145 5.4810093816 10.3987296023
207 2 8.5270913288 12.0760148452 9.6760637215
208 2 13.0885982968 13.2126441771 14.8801284312
209 2 15.6755731118 13.5249863473 13.9143397803
210 2 7.8485204057 12.2246999106 14.3201787647
211 2 5.4916210594 5.5792892439 14.2309106896
212 2 7.8899291908 1.3730378469 13.5265549938
213 2 11.4612262748 5.3748945362 14.6034733343
214 2 9.0073585268 4.3746974037 14.6276382448
215 2 5.4751656904 7.0006945381 11.8239041510
216 2 13.5113254611 8.4142757906 14.6687404769
217 2 -0.3741158286 7.4161969665 12.7364346704
218 2 12.9490401330 0.8102785264 11.5617765362
219 2 0.4114829177 1.3186971343 11.8946690670
220 2 1.9527541322 14.6410015710 10.2146106020
221 2 14.4242130270 2.5352285243 14.9080672603
222 2 7.9546039266 6.8087955687 10.9209287986
223 2 1.1712080688 12.2993850852 14.0860561927
224 2 9.7765292119 2.6974353260 9.7844363997
225 2 4.3527842189 0.4614482403 11.2082137515
226 2 12.6315877265 13.6562050406 10.2982000354
227 2 7.6356245634 3.9552809559 11.1106601370
228 2 14.9492416772 6.2538082720 14.0838917402
229 3 5.5469756848 14.7375980694 2.6479430471
230 3 7.2409329825 14.2893431520 0.6824622036
231 3 8.9424469964 13.0860083411 3.8736547013
232 3 3.0144563208 1.1649849140 -0.1353856075
233 3 2.3616322021 0.8496895666 2.7951335120
234 3 11.1209878247 13.0446132843 1.1285575229
235 3 6.2659060186 12.5383898767 3.7932373377
236 3 6.4084666676 1.1343435461 -0.2533283172
237 3 3.4545697429 12.9865265690 3.5912483783
238 3 8.7875877942 0.8705216417 0.0068712914
239 3 7.5080922172 0.4363843253 3.8084058303
240 3 3.2671794559 13.6432696706 16.0303723885
241 3 5.8082657406 4.9367853253 2.5548832932
242 3 6.8870298884 3.8848759352 0.8110787972
243 3 8.8654195281 3.1056075508 3.7697248272
244 3 2.8396959523 6.3714239089 0.3413679423
245 3 2.6105018125 6.1745101613 2.6025580620
246 3 10.6995897176 2.7631320618 1.0290779302
247 3 6.2525798850 2.4260691042 3.8107141998
248 3 6.5404273181 6.3006288046 -0.5800421786
249 3 3.7286066032 2.7891481844 3.6479337433
250 3 9.9275395521 6.3053568079 0.4666739791
251 3 7.9294744966 5.5280567591 3.5890804633
252 3 4.9412746348 3.4136676245 -0.3691192328
253 3 4.7620228946 10.2645874156 3.4893934217
254 3 6.7979129099 8.5032097775 16.1723872551
255 3 9.7864761710 7.1774117741 2.9608455533
256 3 1.6074199606 11.3583106476 16.0761975015
257 3 2.1170073064 11.1861315152 2.6760793036
258 3 11.0175005493 8.1118741098 0.5040620512
259 3 6.2701350087 8.6357459761 2.5709931061
260 3 6.3892945030 10.2884248085 0.9271814463
261 3 3.6864799341 7.8559324404 3.4374314781
262 3 10.0975054830 11.5590604359 0.6648454493
263 3 8.0524663095 10.2901182273 3.8088353322
264 3 3.8738520938 8.9945700137 16.0955339455
265 3 14.2764010726 0.0562493636 3.1515570369
266 3 16.6478276389 14.0124418972 -0.1579266370
267 3 1.4275579039 12.8313940641 2.7044045741
268 3 12.4794932738 0.9558498326 0.1991731868
269 3 10.4259112668 1.1072707586 2.9046928865
270 3 1.8705838090 13.0821285223 0.4859429755
271 3 14.9366643592 12.7160267483 3.8242813950
272 3 14.9862139271 0.3949379971 0.7802990525
273 3 12.2787663278 13.1475593503 4.0481024423
274 3 0.5021787073 1.2315203916 -0.1979540526
275 3 16.7677443519 0.5349928023 3.8338732098
276 3 13.4577230807 14.0437785776 0.0870572578
277 3 14.0705831104 5.2333561374 2.8966327036
278 3 15.6824228637 4.0781194852 0.6975183561
279 3 1.4318304039 2.4989361579 2.7777859037
280 3 12.4381006108 6.1183292343 -0.2179510830
281 3 10.6664230591 5.1976352874 3.7356982938
282 3 1.9780666212 2.7827195796 0.6224468918
283 3 15.0814920968 3.8408088758 2.9704335675
284 3 15.1007868966 6.2793202788 -0.0526647651
285 3 12.5525595536 3.2110084303 3.9820590404
286 3 17.6123194359 6.1984534418 -0.4400173187
287 3 16.8943266144 5.5231809517 3.6828658100
288 3 13.3493180659 3.9080652374 -0.0911192415
289 3 13.2342263736 10.6820235826 3.8468952706
290 3 15.6145156163 9.3254825042 0.7681338986
291 3 1.3133343722 7.6468639215 2.7506475994
292 3 12.4993864367 11.2427811980 -0.0630047803
293 3 10.5829001510 11.2563691854 3.0741733799
294 3 1.5737108166 8.0837861934 0.2971476925
295 3 15.3716384569 8.6136060742 3.0121934289
296 3 14.7578325478 12.0956222666 -0.0415179789
297 3 12.1602537929 8.2107003108 3.8130736094
298 3 17.4580281649 11.0823151679 -0.2737915520
299 3 16.5963054384 10.6984921939 3.7028232393
300 3 13.5602860633 8.8996858654 -0.0753242461
301 3 2.5785931369 12.4682773398 5.4565686842
302 3 6.4310809371 13.5886895410 5.9332391673
303 3 10.5913646192 0.0535963277 4.6838139842
304 3 4.6271069782 0.2018593813 4.7679518001
305 3 4.5568288788 13.1727547286 8.5995154321
306 3 1.8846658587 14.0546091948 8.6900151739
307 3 3.8371175576 1.1003417271 8.5774235646
308 3 2.7495198210 2.2324750873 5.6431407045
309 3 6.3121323479 3.5271374689 5.8241945535
310 3 9.9744263220 5.6365699927 5.7622496040
311 3 4.9821651463 5.2102425972 4.5685687287
312 3 4.8719917906 3.4269903409 8.5055078293
313 3 2.0320131595 3.6605877894 8.4840660639
314 3 3.7115130447 5.8972865210 8.4866916618
315 3 2.8652174711 7.2854262708 5.4267123916
316 3 6.2889424692 7.1226385376 4.1642159218
317 3 10.4705497183 10.2098887837 5.1165799395
318 3 5.8411126870 10.3542265812 5.1444411199
319 3 5.1666878301 8.6459028816 8.1337174407
320 3 2.3219597657 8.4040492907 8.5606789915
321 3 3.9239580226 10.9243631866 8.5706318628
322 3 11.1889057514 12.3257568785 5.6082974256
323 3 15.5996531552 0.0807464694 5.8151180785
324 3 14.5469128269 13.5917889804 5.5124918821
325 3 1.8946422525 0.0905267130 4.6449259620
326 3 13.1749930137 0.5206920975 4.8611886754
327 3 0.2331646577 13.0270380686 4.5624122046
328 3 1.2211178010 1.3605160610 7.9382482968
329 3 14.1364515434 13.9797110056 7.6178004669
330 3 14.9750219176 1.0605609157 8.6517695871
331 3 16.5370291694 13.4678218676 8.4867835477
332 3 11.6787852767 1.2350577423 8.5129616216
333 3 11.4019984631 2.5217753390 5.3499395200
334 3 15.7280414089 4.9188382552 5.7337731261
335 3 14.8753146313 2.6055367831 4.7963042936
336 3 2.0766692513 4.9777271568 4.6120325935
337 3 13.4911145031 5.7634187216 5.0872851272
338 3 17.6221796827 3.0522605781 4.6997004579
339 3 1.5174049028 6.4830678893 7.6099018803
340 3 13.8597883354 3.9782671794 8.1107257779
341 3 15.3245291784 6.7940839579 8.7918207213
342 3 15.7711696509 4.0012956525 7.8204122357
343 3 12.4361947200 5.9313454296 8.8379195812
344 3 11.4777760796 7.1482116703 5.6408074031
345 3 15.9615664923 9.9692985266 5.4312824042
346 3 15.0903143856 7.6210799153 4.8754840585
347 3 2.0131280451 10.1433612483 4.7247403425
348 3 13.7071552326 9.7904120993 5.4202654939
349 3 0.5821099407 8.0152377553 4.7834638588
350 3 1.3713387175 11.8745937774 7.5981735031
351 3 13.1418653174 8.8554044198 8.8133165671
352 3 15.0321043166 10.1932373402 7.6680784071
353 3 16.5638532953 8.7564047464 8.6384405782
354 3 12.1674145311 11.1540741306 8.8019517285
355 3 8.4723652416 8.4310276750 4.2690974142
356 3 7.1622874675 7.8393932737 5.3894805791
357 3 7.2938184220 6.0879934063 7.8204722808
358 3 6.1986223126 4.7462966151 7.7007144427
359 3 7.1175225364 0.9018354542 8.1874306925
360 3 6.0841087930 15.0331888961 7.6497866843
361 3 8.8757803267 9.2597318904 5.6152912318
362 3 11.1657892187 7.7186725649 8.2737175664
363 3 9.5183708844 3.0558485583 6.5093445493
364 3 9.6845509038 4.8095301063 7.8181415935
365 3 10.0217128339 14.4425982910 8.4721579638
366 3 9.9194968875 13.1618170440 7.4858386180
367 3 15.5684570359 12.1756685987 10.6980745305
368 3 14.1531804678 12.8696118106 10.7724555200
369 3 4.5144254065 3.5954345536 10.4870276631
370 3 4.7948852311 2.1002228179 10.4849944882
371 3 12.5889781255 3.1992986423 9.6003177003
372 3 11.3652395867 3.0041445874 10.4220495524
373 3 13.8777527599 10.6631081241 11.9870127384
374 3 12.7090453176 9.6473767130 11.7132735493
375 3 3.3174042037 9.4075227988 12.6882507499
376 3 4.5726783845 10.2181040754 13.1630438173
377 3 4.2223860140 12.8165776738 14.1434893134
378 3 3.8117689040 14.4437705002 14.2003328139
379 3 1.0269005996 11.6102724211 11.1323530458
380 3 1.5148471032 12.2832290598 12.4845272202
381 3 9.1258660224 7.4280940574 7.9687574642
382 3 8.5257674561 6.7371432046 9.2407471621
383 3 -0.2595183818 11.3067534652 9.3598039598
384 3 -0.8579223934 10.3900990698 10.4068266123
385 3 4.4915562784 10.6725560566 10.7037488233
386 3 3.2620094272 11.6750807718 10.7058122053
387 3 16.2525329738 8.3175398516 11.3899136048
388 3 14.9624024300 9.0691503796 10.7974616483
389 3 10.0310897878 0.8821071671 5.9025783641
390 3 8.2102843889 2.3827150913 5.8038959705
391 3 8.7358586070 13.7041192410 14.6145613767
392 3 9.3236601654 14.4292892626 15.8093074346
393 3 6.6568505240 2.2665686073 14.2120430488
394 3 6.1057311948 3.0353169953 15.4947164249
395 3 7.0102546319 13.8483551596 11.8280334051
396 3 5.9005831556 -0.4083825076 11.3473450041
397 3 6.3245062782 11.7235711126 13.9838618485
398 3 5.2886344504 11.4558059167 15.1246904163
399 3 1.7602326172 2.7920983471 14.4384098053
400 3 1.0786478678 1.7045430689 13.3393248534
401 3 10.7349831764 12.6644190370 12.0670573047
402 3 10.0013874172 12.2080775235 10.6512539146
403 3 10.9721179020 9.0550519641 9.3164171495
404 3 10.9344557023 10.3089834151 10.7437334537
405 3 17.4592578694 3.4334481193 9.4243820018
406 3 0.8923136448 3.9786276829 10.6990367138
407 3 10.5325449117 7.6217993823 12.7923124599
408 3 10.6496882625 8.5380844258 11.4741238397
409 3 13.7620994070 3.6472870913 13.5882494569
410 3 12.8784337724 3.9368370588 12.2985694282
411 3 9.6762296837 9.3237911979 13.7003277443
412 3 9.4817633708 9.4533252793 15.2851332317
413 3 7.8790998450 0.1611376393 9.8925312094
414 3 8.9075485009 1.3147527787 9.3581176912
415 3 1.8501226876 5.0111983679 12.9671042583
416 3 0.7499914990 5.8888305979 12.2879662622
417 3 3.2502029122 1.2191724939 13.9520782932
418 3 4.9279758626 1.5045576741 14.0341449488
419 3 11.4194473393 14.4667157343 12.5299986630
420 3 10.4247654379 14.3493938072 13.7954348508
421 3 15.2847430075 1.5093773304 13.4708378580
422 3 14.3282537119 0.7798871798 12.3777664116
423 3 2.5176114922 4.9978977946 15.2882528499
424 3 3.5823182434 5.0044321300 14.2329167494
425 3 9.3144326008 11.3385236065 6.5624372091
426 3 7.9669301844 12.2727074558 6.3793337907
427 3 1.8238503872 8.7459341598 14.9799528483
428 3 1.0215914317 9.8454839087 14.3303309646
429 3 4.4021873183 6.0303482080 10.7845158402
430 3 2.9344837397 5.5236031060 11.0401723666
431 3 7.8742164312 11.4599525274 10.0633005906
432 3 8.5035889920 11.9847972555 8.6744962290
433 3 14.0090715532 13.3324227793 14.5344488585
434 3 12.4866615142 13.4762201613 14.1369874719
435 3 15.4827507109 14.3931335343 13.5038280510
436 3 15.5076815528 12.9356731851 13.1662158983
437 3 7.6347929395 11.9985205783 15.2042931676
438 3 8.5187877600 11.5157539576 14.1113463369
439 3 5.6088829235 4.5983610217 14.2038452783
440 3 5.4564883947 5.9492577273 13.3171483598
441 3 8.5095666680 0.7205441119 13.9849811928
442 3 7.3201772958 0.8121735372 12.8934199556
443 3 10.6444325261 4.8412566088 14.4425917042
444 3 12.1570634333 5.2041090120 13.9227120827
445 3 8.6700470227 5.1825238290 15.0243693199
446 3 9.0506112038 3.8066691567 15.4502430334
447 3 5.0003529921 7.8583038840 12.0224995279
448 3 6.4419868984 7.2445867685 11.6201279440
449 3 13.6498099066 8.9299966102 13.8647595161
450 3 14.1938163337 8.7459995316 15.3555385861
451 3 -1.1031435006 6.9148281759 13.1936404424
452 3 0.0739872345 7.8584222699 13.4802934030
453 3 12.7731102285 1.6935735087 11.0234159903
454 3 12.8244844798 0.0165032264 10.9760639541
455 3 -0.5172905782 1.0788970032 12.0789982876
456 3 0.3982703576 1.9956637727 11.1925476883
457 3 1.8078829274 13.8135848652 10.7708937361
458 3 1.2926171739 15.3293016636 10.4578810747
459 3 14.9826727990 3.1871214361 15.4894953987
460 3 13.9405724556 2.0521492767 15.6398891242
461 3 7.9551439685 5.7952838381 11.0604597768
462 3 8.7907441927 7.1003852229 11.3942441061
463 3 1.9530765808 12.9102775191 14.1157575328
464 3 0.4215192742 12.8563671648 13.9689268716
465 3 9.8572488804 3.3104251113 8.8181623055
466 3 9.0434357771 3.1037372318 10.3258567075
467 3 3.6024318994 -0.0413391374 10.8312748531
468 3 4.1740258076 0.5566903772 12.1532035842
469 3 12.7716563163 13.6843561035 9.3297012232
470 3 11.8712203791 12.9969271701 10.4991360838
471 3 7.8503379835 3.7217522746 12.0504688733
472 3 6.6892882903 3.5444468807 10.9556722967
473 3 14.4764363701 5.5170680944 13.6203513419
474 3 14.3149608660 7.0649698258 14.1608899317
ITEM: TIMESTEP
1
ITEM: NUMBER OF ATOMS
474
ITEM: BOX BOUNDS xy xz yz pp pp pp
-0.035313 17.263446 0.0
-0.094195 15.097965 -1.293068
-0.170688 16.208350 0.000000
ITEM: ATOMS id type x y z
1 1 4.8159311986 11.8570153652 1.5833712260
2 1 7.7041013176 1.9031479933 2.0124566565
3 1 3.3051923518 14.4938814515 1.6247831286
4 1 9.1132775287 14.5294266381 1.9721623769
5 1 4.8970812417 1.6914396663 1.7067296780
6 1 7.7538728793 6.8895008400 1.5679089411
7 1 3.4008393606 4.2845721077 1.5877441541
8 1 9.1774749674 4.3914834844 2.0071049166
9 1 4.8545163778 6.7697060751 1.5369557222
10 1 7.7413754839 12.0737113278 1.7170858532
11 1 3.4389117518 9.3707469790 1.4976985660
12 1 9.0948437691 9.4189976989 1.7282720751
13 1 13.4191293792 12.2094101754 2.0566634584
14 1 16.4373517306 2.1112715102 1.7812457690
15 1 12.0738099699 14.7952703530 1.9734843649
16 1 0.4924083088 14.7979351686 1.8035637804
17 1 13.4793402613 2.1102882350 1.8829098296
18 1 16.3521354913 7.2598698083 1.8057685139
19 1 12.0737116618 4.5543797216 1.9821302792
20 1 0.4639501611 4.6844386730 1.7834050180
21 1 13.4757530547 7.1897091183 1.7680558716
22 1 16.3203108646 12.2688681047 1.8900432285
23 1 12.0008383190 9.6879671659 1.9107491835
24 1 0.5929543019 9.7517713511 1.7525214554
25 1 3.3679833334 14.5678959346 6.5911509282
26 1 4.8775025020 12.1415233928 6.3499547618
27 1 3.4223888328 4.3178666466 6.4653683654
28 1 4.9778831032 1.7606313904 6.4783477670
29 1 3.8390953463 9.5201300058 6.4734259069
30 1 5.0266195083 6.7100541967 6.3973175244
31 1 11.9328154533 14.7680514187 6.7428808585
32 1 13.3727676853 12.0413174971 6.8574739411
33 1 0.4841455509 14.7224673209 6.7603705251
34 1 16.2312708208 2.0332410267 6.8556911169
35 1 11.9344160226 4.5910385452 6.6974442063
36 1 13.4205902147 2.0146639515 6.9240609680
37 1 0.4971558939 4.5463935318 6.6346689999
38 1 16.4554370606 7.0191658969 6.6750020547
39 1 11.8355343701 9.4832443205 6.7708324701
40 1 13.4753210356 7.1359663470 6.6854611273
41 1 0.7731669392 9.6488393028 6.6335619675
42 1 16.3080846571 12.0775943960 6.7663927097
43 2 4.6540563492 0.1473965627 2.7528013182
44 2 7.9284609105 13.6730325673 0.7840758107
45 2 9.0800329973 12.7535214435 2.9799891400
46 2 3.6814966179 0.8132624329 0.6360500203
47 2 2.0617958732 0.2073470859 2.7745362880
48 2 10.6650575603 13.9967819196 1.0058783619
49 2 6.1757971463 12.5644877109 2.7005855303
50 2 6.3721221206 0.9116134485 0.8365823257
51 2 3.4465594676 12.6862539200 2.6328364382
52 2 8.9890310118 0.9320566063 0.9521926072
53 2 7.9069071757 0.2939871040 2.9671646652
54 2 4.5758218130 13.3757125994 0.5797681921
55 2 4.7345147658 5.2290313768 2.7051281590
56 2 7.8942378559 3.3878424642 0.9102690658
57 2 9.1988530034 2.7052245199 2.9573891026
58 2 3.6070722674 5.8033352998 0.4323674944
59 2 2.0308313240 5.1786884428 2.6332655864
60 2 10.7002549608 3.7682409229 0.8939839073
61 2 6.2041610210 2.4855327206 2.8229311032
62 2 6.3722253499 6.1506697324 0.5640888174
63 2 3.5229138187 2.6638705548 2.7309025591
64 2 9.0093356343 5.8669182455 0.6040852057
65 2 7.8209057891 5.3432559085 2.8085371448
66 2 4.7620258828 3.3190034972 0.7136045504
67 2 4.7806516781 10.1907938600 2.5261443379
68 2 7.9678615588 8.5325319020 0.5100323414
69 2 8.9566799658 7.9117974670 2.7259418494
70 2 3.7283567020 10.9279706570 0.5083964031
71 2 2.2034969078 10.3281201339 2.6987112125
72 2 10.7105923566 9.0538024395 0.6041195295
73 2 6.2773419686 7.5835968550 2.5945181829
74 2 6.5039787255 11.2667687352 0.5525938226
75 2 3.4111503777 7.7182654368 2.5274094208
76 2 9.1674428250 11.1654341091 0.7285069097
77 2 7.7091067768 10.2808157140 2.3946822111
78 2 4.6070667315 8.2320732731 0.4149059122
79 2 13.3458297365 0.5414230133 2.9928657781
80 2 16.4069782818 13.8424011170 0.8779141342
81 2 0.3147412836 13.2789306983 2.9125888428
82 2 12.2037850803 1.2753204757 0.8680064734
83 2 10.5873831896 0.2702168112 2.9330505626
84 2 1.8078274034 13.9915877278 0.5745166968
85 2 14.9511453399 12.8430216073 2.9916367700
86 2 14.9357736086 1.3920688663 0.8352864512
87 2 12.1108438536 13.1175547523 2.9728721259
88 2 17.6231937027 1.0372489208 0.6259079784
89 2 16.6014378003 0.5369393263 2.7900610039
90 2 13.2694412941 13.7920170240 1.0041854536
91 2 13.4629202584 5.5762806547 2.7792412132
92 2 16.4151283641 3.7778896900 0.7717046140
93 2 0.4291741214 3.1153555576 2.7744927484
94 2 12.2112584403 6.1010932270 0.7282482844
95 2 10.5272040687 5.1796502477 2.8724717434
96 2 1.7996778345 3.6869109132 0.7248287100
97 2 15.0321358343 2.6777424796 2.9043947785
98 2 15.0169255506 6.5363544905 0.7505596271
99 2 12.1999369820 2.9076351957 2.9514081583
100 2 0.4793910802 6.4024278543 0.6759320746
101 2 16.4569951628 5.6429888006 2.7885264993
102 2 13.4977580884 3.7370342470 0.9080818433
103 2 13.2127029057 10.6203393644 3.0338297479
104 2 16.4963564442 8.9190417066 0.7733341092
105 2 0.4393860105 8.1443348888 2.7988835573
106 2 12.1432969964 11.2618789427 0.8745910558
107 2 10.4605085680 10.1822297292 2.8187720637
108 2 1.8412859618 8.9850649108 0.5592918264
109 2 15.0127420788 7.8059757745 3.0244586347
110 2 14.8768610710 11.4614714816 0.9168082670
111 2 12.1372490316 7.9932680975 2.8937499804
112 2 17.6578505614 11.3276035906 0.7225161717
113 2 16.7070674037 10.6919694111 2.8930471012
114 2 13.3476944881 8.7303943591 0.9071900718
115 2 3.4417245878 12.9107792347 5.5288992632
116 2 6.2976743852 12.7545440693 5.4997414189
117 2 10.5475237857 0.1276389070 5.5595802626
118 2 4.8129906712 0.0658610661 5.5837205599
119 2 4.8734592626 13.5530770335 7.5377048873
120 2 2.0069023625 14.0070750181 7.7328329327
121 2 3.7118881439 0.9395271293 7.6146533269
122 2 3.5300108497 2.6693372822 5.5270165473
123 2 6.3943217617 2.3727553091 5.3763560618
124 2 10.7644346570 5.4306567032 5.5405198582
125 2 4.8991238534 5.0862267113 5.4192438869
126 2 5.1069233830 3.4211745959 7.4940610237
127 2 1.9380302913 3.6354316345 7.5824184787
128 2 3.7134847572 5.9395077023 7.4455057017
129 2 3.7119136951 7.8834236221 5.3558254824
130 2 6.5035758360 7.1703087452 5.2475528801
131 2 10.3845421390 10.2279248993 5.8147004188
132 2 4.9963789418 10.5123388351 5.3595453089
133 2 5.2353792640 8.3530128031 7.2911968606
134 2 2.3836002326 8.9104300637 7.6377310688
135 2 4.2527401872 10.9157350368 7.6064726832
136 2 12.0153030816 13.0776143442 5.7645437000
137 2 16.4703558153 0.5087676551 5.7160498710
138 2 14.7745877672 12.7762805717 5.7752247592
139 2 1.9205869135 0.1207221229 5.6153129061
140 2 13.2633486722 0.5210433021 5.7895994124
141 2 0.2329387868 13.1748025074 5.7935072183
142 2 0.3830001520 1.1082586357 7.7801596323
143 2 13.1974721064 13.8327453113 7.7860002082
144 2 14.9552880217 1.2091188058 7.9060497120
145 2 16.6407968240 13.6258934533 7.8485657217
146 2 12.0412530490 1.1442394045 7.8096298308
147 2 12.1250035598 2.9931316703 5.7417303457
148 2 16.4236811904 5.4748786433 5.6536971801
149 2 14.7684295319 2.6636222891 5.9000696298
150 2 1.9860717465 4.8794689794 5.4112983993
151 2 13.4916532470 5.5521901058 5.6860117782
152 2 0.1248218345 3.0333357821 5.7494597328
153 2 0.5481172524 6.0709665492 7.6179536630
154 2 13.2204235973 3.7332950411 7.8232491810
155 2 15.0392722592 6.4117404079 7.8484070331
156 2 16.4193458432 3.6406347452 7.9739194600
157 2 12.2276797271 6.0419541008 7.7690483744
158 2 12.0457645430 7.8628739866 5.7237116851
159 2 16.5800551183 10.6163541974 5.5844660527
160 2 14.9519986639 7.9171411519 5.7185025748
161 2 2.3173098152 10.2954533837 5.6388701593
162 2 13.1954952175 10.4104614249 5.7243680717
163 2 0.5341344717 8.0340331504 5.6054990522
164 2 0.5873483515 11.1207477623 7.7449832002
165 2 13.2924860767 8.7176800343 7.7415298619
166 2 14.8172917827 11.6659383723 7.9980181643
167 2 16.8388207559 8.6809330162 7.7327470254
168 2 12.0818993852 11.1937451416 7.7756520756
169 2 6.2156346217 0.7565111749 7.8117075282
170 2 6.3243003287 5.7494230154 7.6770966892
171 2 8.2431935186 8.8720968720 5.2023260314
172 2 10.4666301500 14.2118037209 7.9364129521
173 2 10.4678123851 4.0221969851 7.7434544293
174 2 10.6594681947 8.7969096747 8.0964458621