-2254165.709 
-2254144.391 
-2254135.956 
-2254112.618 
-2254190.142 
-2254165.148 
-2254119.978 
-2254156.335 
-2254143.737 
-2254128.078 
-2254139.788 
-2254105.266 
-2254171.295 
-2254184.044 
-2254153.902 
-2254122.619 
-2254153.160 
-2254144.766 
-2254180.111 
-2254152.377 
