ITEM: TIMESTEP
0
ITEM: NUMBER OF ATOMS
537
ITEM: BOX BOUNDS pp pp pp
0 14.841000
0 17.165000
0 17.836000
ITEM: ATOMS id type x y z
1 1 0.6120000000 11.4620000000 11.1860000000
2 1 12.9890000000 9.9600000000 11.3310000000
3 1 10.6140000000 11.7390000000 11.5420000000
4 1 8.0340000000 10.3140000000 11.5400000000
5 1 5.5850000000 11.7560000000 11.6460000000
6 1 3.2460000000 10.1910000000 11.4600000000
7 1 0.9500000000 2.9280000000 11.7950000000
8 1 13.3390000000 1.4950000000 11.6620000000
9 1 10.7980000000 2.8500000000 11.5580000000
10 1 8.3300000000 1.2720000000 11.4920000000
11 1 5.8010000000 2.7110000000 11.5010000000
12 1 3.2830000000 1.3790000000 11.5300000000
13 1 0.6840000000 5.7510000000 11.5290000000
14 1 3.2540000000 7.2280000000 11.3440000000
15 1 10.4970000000 5.7010000000 11.5370000000
16 1 13.0170000000 7.1380000000 11.5500000000
17 1 5.6460000000 5.7150000000 11.4930000000
18 1 8.1330000000 7.2410000000 11.3650000000
19 1 4.5250000000 7.3410000000 6.6150000000
20 1 2.0420000000 5.8880000000 6.6220000000
21 1 14.3770000000 7.3890000000 6.7690000000
22 1 11.9910000000 5.6870000000 6.8420000000
23 1 9.4550000000 7.2080000000 6.7070000000
24 1 6.9280000000 5.8040000000 6.7000000000
25 1 4.4950000000 15.8190000000 6.8590000000
26 1 2.0850000000 14.3630000000 6.7990000000
27 1 14.5070000000 15.8530000000 6.9950000000
28 1 12.0630000000 14.4240000000 6.8690000000
29 1 9.5370000000 15.7740000000 6.8560000000
30 1 6.9820000000 14.3090000000 6.8910000000
31 1 14.5540000000 10.1350000000 6.6140000000
32 1 2.1230000000 11.5480000000 6.6790000000
33 1 9.5780000000 10.1380000000 6.6650000000
34 1 12.1110000000 11.5200000000 6.6860000000
35 1 7.1420000000 11.4860000000 6.6760000000
36 1 4.6940000000 10.1680000000 6.6560000000
37 1 14.6840000000 1.5200000000 6.9450000000
38 1 2.1760000000 3.1120000000 6.7210000000
39 1 9.4860000000 1.4610000000 6.6980000000
40 1 12.0770000000 2.8180000000 6.8940000000
41 1 4.5610000000 1.5640000000 6.8180000000
42 1 6.9570000000 3.0370000000 6.7480000000
43 2 1.3610000000 13.0280000000 12.1590000000
44 2 10.4290000000 15.6720000000 10.3020000000
45 2 6.2240000000 13.0570000000 12.8590000000
46 2 14.6160000000 17.4060000000 12.9860000000
47 2 9.1180000000 -0.0750000000 12.8550000000
48 2 3.9040000000 17.0690000000 12.5730000000
49 2 1.2580000000 10.4340000000 15.1260000000
50 2 14.8490000000 14.5660000000 13.9090000000
51 2 11.6020000000 6.1260000000 15.4010000000
52 2 12.0290000000 11.5120000000 15.0940000000
53 2 0.9820000000 17.9940000000 16.6040000000
54 2 0.3120000000 3.4560000000 15.5380000000
55 2 11.0020000000 7.8230000000 2.1030000000
56 2 10.9530000000 8.5570000000 17.1320000000
57 2 11.7080000000 11.0850000000 18.4120000000
58 2 11.7900000000 3.1340000000 15.4020000000
59 2 4.7270000000 10.5460000000 15.1450000000
60 2 13.4150000000 -0.1970000000 17.3200000000
61 2 6.2070000000 0.7030000000 3.1990000000
62 2 14.4250000000 12.6530000000 15.4140000000
63 2 6.7520000000 16.1350000000 15.1770000000
64 2 5.0050000000 15.6530000000 10.7170000000
65 2 3.8940000000 1.5840000000 17.5350000000
66 2 14.2850000000 13.5850000000 0.3880000000
67 2 1.1290000000 14.0710000000 3.3500000000
68 2 13.3090000000 15.6700000000 3.3670000000
69 2 11.0610000000 4.3560000000 0.2550000000
70 2 7.8580000000 7.2470000000 15.0550000000
71 2 9.7220000000 14.4980000000 3.0580000000
72 2 6.7350000000 14.8890000000 2.7900000000
73 2 4.9580000000 7.9940000000 3.0170000000
74 2 12.7370000000 5.9640000000 3.0380000000
75 2 3.1010000000 14.1240000000 17.5440000000
76 2 5.3940000000 1.3340000000 15.1950000000
77 2 10.0600000000 15.3670000000 -0.5370000000
78 2 1.8010000000 4.0600000000 0.1490000000
79 2 3.8560000000 14.5390000000 2.5990000000
80 2 8.7290000000 3.5120000000 15.7040000000
81 2 3.7810000000 11.2520000000 -0.2070000000
82 2 2.2090000000 9.0060000000 -0.1250000000
83 2 2.7330000000 2.8680000000 15.0470000000
84 2 14.2760000000 8.4570000000 0.5060000000
85 2 12.3890000000 1.5220000000 2.9890000000
86 2 12.3070000000 15.3820000000 13.0690000000
87 2 8.0280000000 9.0040000000 17.3970000000
88 2 7.2640000000 9.1690000000 2.3150000000
89 2 13.4040000000 2.8580000000 18.2790000000
90 2 14.9100000000 15.5170000000 10.3910000000
91 2 7.2830000000 11.0250000000 15.7550000000
92 2 5.9660000000 11.4830000000 1.5990000000
93 2 5.8640000000 5.3260000000 1.9080000000
94 2 1.0130000000 11.6360000000 1.9520000000
95 2 4.7360000000 14.3260000000 14.4930000000
96 2 8.4780000000 6.8040000000 2.7700000000
97 2 3.9380000000 5.6060000000 -0.5790000000
98 2 -1.2340000000 8.7950000000 15.6270000000
99 2 2.5630000000 17.1320000000 1.3660000000
100 2 2.9360000000 5.0140000000 2.9050000000
101 2 3.6610000000 11.8510000000 2.9710000000
102 2 14.2380000000 9.7490000000 3.0080000000
103 2 10.8370000000 10.2820000000 3.0730000000
104 2 9.5910000000 0.2020000000 2.5010000000
105 2 3.4180000000 7.9960000000 -2.5560000000
106 2 6.2060000000 2.6010000000 0.6710000000
107 2 7.3750000000 13.8830000000 17.3420000000
108 2 11.8290000000 14.2930000000 1.4070000000
109 2 14.3870000000 5.8730000000 15.6220000000
110 2 8.0780000000 1.0180000000 -0.3720000000
111 2 8.7030000000 14.4280000000 12.9280000000
112 2 9.9990000000 13.2370000000 15.4930000000
113 2 5.6760000000 5.5340000000 14.9050000000
114 2 3.5210000000 1.8850000000 2.9430000000
115 2 2.4120000000 16.0590000000 14.9520000000
116 2 7.9940000000 5.5080000000 0.0030000000
117 2 11.4390000000 17.0520000000 15.3370000000
118 2 2.2070000000 7.9780000000 2.5990000000
119 2 7.5590000000 3.4160000000 2.9910000000
120 2 10.4800000000 4.1140000000 3.4470000000
121 2 0.4090000000 1.4690000000 3.5520000000
122 2 15.2520000000 6.0510000000 1.5280000000
123 2 11.7280000000 12.9330000000 12.5780000000
124 2 1.5690000000 4.5320000000 12.6890000000
125 2 11.3310000000 4.2390000000 12.7120000000
126 2 6.4970000000 4.2740000000 12.4890000000
127 2 13.9900000000 11.3570000000 12.3860000000
128 2 9.0800000000 11.4620000000 12.6570000000
129 2 3.8640000000 11.5730000000 12.5830000000
130 2 14.1510000000 2.8840000000 12.8120000000
131 2 9.1650000000 2.6430000000 12.4330000000
132 2 4.3670000000 2.5290000000 12.6280000000
133 2 1.5170000000 7.3940000000 12.4440000000
134 2 11.4280000000 7.0100000000 12.7020000000
135 2 6.5470000000 7.2060000000 12.3240000000
136 2 7.6490000000 4.4580000000 5.7810000000
137 2 12.6760000000 4.2810000000 5.8200000000
138 2 2.7790000000 4.5080000000 5.6680000000
139 2 1.6190000000 10.3010000000 12.4710000000
140 2 11.4240000000 10.2940000000 12.5980000000
141 2 6.5320000000 10.3630000000 12.5330000000
142 2 1.8370000000 1.5990000000 12.7650000000
143 2 11.8140000000 1.5740000000 12.7630000000
144 2 6.7730000000 1.5070000000 12.5260000000
145 2 13.6840000000 8.7470000000 12.5650000000
146 2 8.8220000000 8.7460000000 12.4800000000
147 2 3.9110000000 8.6680000000 12.4480000000
148 2 13.8820000000 5.9190000000 12.7310000000
149 2 8.9600000000 5.9560000000 12.5070000000
150 2 4.1570000000 5.8800000000 12.6580000000
151 2 5.4450000000 5.9580000000 5.6380000000
152 2 10.2830000000 5.7390000000 5.7850000000
153 2 0.3840000000 6.0880000000 5.7110000000
154 2 5.4100000000 2.8940000000 5.7920000000
155 2 5.6160000000 11.5000000000 5.5900000000
156 2 10.5670000000 2.8020000000 5.7880000000
157 2 10.5430000000 11.3600000000 5.5850000000
158 2 0.6120000000 2.8240000000 5.8400000000
159 2 0.7170000000 11.5060000000 5.4620000000
160 2 5.2580000000 17.2620000000 5.8480000000
161 2 5.2450000000 8.7170000000 5.5040000000
162 2 10.1780000000 0.0210000000 5.8110000000
163 2 10.2920000000 8.5900000000 5.6770000000
164 2 0.5250000000 17.2750000000 6.0140000000
165 2 0.2010000000 8.7060000000 5.5490000000
166 2 2.3240000000 11.5260000000 10.4000000000
167 2 14.5500000000 10.0040000000 10.2910000000
168 2 12.0760000000 11.4150000000 10.3910000000
169 2 9.6030000000 10.4490000000 10.4700000000
170 2 7.2220000000 11.6840000000 10.5920000000
171 2 4.8300000000 10.4490000000 10.3320000000
172 2 2.4470000000 2.8800000000 10.7160000000
173 2 14.8910000000 1.5500000000 10.7860000000
174 2 12.4280000000 2.8560000000 10.6510000000
175 2 9.9460000000 1.6040000000 10.5250000000
176 2 7.3290000000 2.5490000000 10.3670000000
177 2 4.9360000000 1.3370000000 10.5440000000
178 2 2.1550000000 6.0010000000 10.4880000000
179 2 12.0760000000 5.7200000000 10.6850000000
180 2 7.2490000000 5.8690000000 10.4730000000
181 2 8.0050000000 1.7290000000 5.6690000000
182 2 13.0780000000 1.5310000000 5.9270000000
183 2 3.0850000000 1.7620000000 5.6260000000
184 2 -0.1380000000 12.6030000000 9.9960000000
185 2 9.8330000000 13.1400000000 10.6420000000
186 2 14.9850000000 4.2300000000 10.6410000000
187 2 10.0150000000 4.2790000000 10.4610000000
188 2 5.0890000000 4.2020000000 10.3850000000
189 2 4.9280000000 13.0560000000 10.4650000000
190 2 2.6450000000 8.7370000000 10.2660000000
191 2 12.2500000000 8.5440000000 10.4090000000
192 2 7.3980000000 8.7310000000 10.3110000000
193 2 2.6430000000 0.3150000000 10.1220000000
194 2 12.7240000000 -0.1400000000 10.9230000000
195 2 7.8380000000 -0.0830000000 10.4800000000
196 2 14.5620000000 7.0240000000 10.4910000000
197 2 9.7350000000 7.0130000000 10.4710000000
198 2 4.7310000000 6.9790000000 10.3900000000
199 2 5.4660000000 14.4970000000 5.8290000000
200 2 10.4380000000 14.4910000000 5.6870000000
201 2 0.4490000000 14.5050000000 5.7900000000
202 2 7.8430000000 12.9670000000 5.8770000000
203 2 12.7710000000 12.9620000000 5.7960000000
204 2 2.7830000000 13.0280000000 5.6630000000
205 2 8.0220000000 10.2100000000 5.5840000000
206 2 13.0400000000 10.3330000000 5.5830000000
207 2 3.1000000000 10.3730000000 5.5570000000
208 2 13.8100000000 8.7200000000 7.8550000000
209 2 3.7740000000 0.1490000000 7.7610000000
210 2 3.8710000000 8.8210000000 7.6140000000
211 2 8.7900000000 8.7280000000 7.6080000000
212 2 14.0380000000 0.0460000000 8.0700000000
213 2 8.6940000000 0.1200000000 7.8170000000
214 2 1.2840000000 7.2930000000 7.6530000000
215 2 10.9430000000 6.9140000000 7.8050000000
216 2 6.0830000000 7.1500000000 7.7350000000
217 2 1.2610000000 15.5930000000 7.8980000000
218 2 11.1400000000 15.7280000000 7.7640000000
219 2 6.0530000000 15.6390000000 7.9410000000
220 2 13.6960000000 11.3850000000 7.5950000000
221 2 8.7090000000 11.4010000000 7.7630000000
222 2 3.8060000000 11.4620000000 7.6130000000
223 2 13.6590000000 2.7110000000 7.9560000000
224 2 8.6450000000 2.9250000000 7.6650000000
225 2 3.6240000000 2.8880000000 7.8030000000
226 2 3.5920000000 5.9960000000 7.7930000000
227 2 13.6030000000 5.9390000000 7.9040000000
228 2 8.4590000000 6.0200000000 7.8140000000
229 2 3.6520000000 14.4100000000 7.7790000000
230 2 13.5870000000 14.5370000000 7.9960000000
231 2 8.7300000000 14.3990000000 7.8290000000
232 2 1.2990000000 4.5390000000 7.6780000000
233 2 11.4200000000 4.2910000000 7.9420000000
234 2 6.1640000000 4.4200000000 7.7950000000
235 2 1.4580000000 12.8970000000 7.7090000000
236 2 11.4450000000 12.9420000000 7.8440000000
237 2 6.3620000000 12.8580000000 7.8560000000
238 2 1.2870000000 10.2100000000 7.6660000000
239 2 11.2650000000 10.1110000000 7.7350000000
240 2 6.2170000000 10.1470000000 7.5750000000
241 2 1.3080000000 1.7690000000 7.9540000000
242 2 11.0390000000 1.5350000000 7.8790000000
243 2 6.1940000000 1.7190000000 7.8300000000
244 2 2.9790000000 7.2070000000 5.6520000000
245 2 12.7740000000 6.9590000000 5.7040000000
246 2 7.8910000000 7.0840000000 5.6790000000
247 2 2.8820000000 15.7490000000 5.7670000000
248 2 12.9250000000 15.8590000000 5.9240000000
249 2 8.0020000000 15.5450000000 5.6590000000
250 3 0.9050000000 13.5900000000 12.8270000000
251 3 1.7030000000 13.5370000000 11.4200000000
252 3 10.1530000000 14.6560000000 10.4400000000
253 3 9.5970000000 16.1410000000 10.4900000000
254 3 7.0700000000 13.6150000000 12.8670000000
255 3 5.5300000000 13.5520000000 13.3850000000
256 3 14.8010000000 16.5710000000 12.5590000000
257 3 15.6130000000 0.6600000000 12.9790000000
258 3 10.0670000000 -0.0580000000 13.0120000000
259 3 8.9360000000 16.1120000000 12.7600000000
260 3 4.2400000000 16.4130000000 11.8380000000
261 3 3.3220000000 16.6160000000 13.2020000000
262 3 1.9400000000 10.1230000000 15.7270000000
263 3 1.5160000000 10.4190000000 14.1690000000
264 3 14.8390000000 13.8610000000 14.5980000000
265 3 13.9380000000 14.9360000000 13.8050000000
266 3 11.3560000000 6.1950000000 14.3710000000
267 3 11.0420000000 5.3550000000 15.6540000000
268 3 11.8930000000 11.2380000000 14.1390000000
269 3 12.0310000000 10.7470000000 15.7050000000
270 3 0.1660000000 17.5020000000 16.5450000000
271 3 1.3990000000 17.7810000000 17.4630000000
272 3 14.8610000000 2.9030000000 16.2580000000
273 3 -0.0330000000 4.4090000000 15.7940000000
274 3 11.0020000000 8.1220000000 1.1590000000
275 3 11.6710000000 7.1320000000 2.3330000000
276 3 10.0020000000 8.6490000000 17.2250000000
277 3 11.0390000000 7.8890000000 16.3940000000
278 3 11.6970000000 10.1360000000 18.1490000000
279 3 10.9960000000 11.4830000000 17.8900000000
280 3 11.6920000000 3.7100000000 14.6610000000
281 3 10.9490000000 3.3400000000 15.8440000000
282 3 4.3490000000 10.8690000000 14.2740000000
283 3 4.2010000000 10.9060000000 15.9280000000
284 3 13.6090000000 16.1060000000 17.8060000000
285 3 12.5590000000 16.8840000000 16.7620000000
286 3 6.4990000000 1.6490000000 3.0500000000
287 3 6.4060000000 17.3230000000 2.4170000000
288 3 13.4740000000 12.3010000000 15.3560000000
289 3 0.2090000000 11.9130000000 15.3620000000
290 3 6.2410000000 -0.1690000000 15.0540000000
291 3 7.5940000000 -0.8730000000 14.7590000000
292 3 4.8600000000 16.2060000000 9.9300000000
293 3 4.9250000000 14.6840000000 10.5370000000
294 3 3.6640000000 0.7410000000 18.0340000000
295 3 4.6220000000 2.0080000000 0.1420000000
296 3 -0.2620000000 12.7510000000 0.7640000000
297 3 14.2800000000 13.3710000000 -0.5640000000
298 3 1.9070000000 14.6550000000 3.1570000000
299 3 0.6820000000 14.2530000000 4.2310000000
300 3 13.1250000000 15.6780000000 4.3760000000
301 3 14.2380000000 15.4960000000 3.2430000000
302 3 10.7810000000 4.3510000000 1.1800000000
303 3 11.9320000000 3.9270000000 18.0900000000
304 3 8.0010000000 7.7590000000 15.8630000000
305 3 7.2000000000 6.5330000000 15.2250000000
306 3 10.4700000000 14.2730000000 2.4330000000
307 3 10.0260000000 14.5890000000 3.9700000000
308 3 7.6190000000 14.8140000000 2.4530000000
309 3 6.9570000000 14.9090000000 3.7910000000
310 3 4.0160000000 7.8420000000 2.8840000000
311 3 4.9530000000 8.3120000000 3.9640000000
312 3 12.1830000000 5.1570000000 3.0210000000
313 3 12.7820000000 6.1620000000 4.0560000000
314 3 3.6810000000 14.0830000000 0.4580000000
315 3 2.2060000000 14.0840000000 17.8890000000
316 3 4.6940000000 1.3320000000 15.8910000000
317 3 5.1170000000 1.9200000000 14.4450000000
318 3 9.1870000000 14.9510000000 17.3830000000
319 3 10.7260000000 15.0140000000 0.1270000000
320 3 2.6290000000 4.4280000000 -0.2360000000
321 3 1.8510000000 3.0860000000 -0.0110000000
322 3 3.8780000000 13.6490000000 3.0380000000
323 3 4.8100000000 14.8270000000 2.7260000000
324 3 8.4480000000 4.3180000000 16.1480000000
325 3 8.7130000000 2.7900000000 16.3570000000
326 3 4.6100000000 11.3230000000 0.3720000000
327 3 3.1580000000 12.0190000000 17.7900000000
328 3 1.2600000000 9.0620000000 0.1680000000
329 3 2.7320000000 9.8610000000 -0.0970000000
330 3 2.9460000000 2.4340000000 15.9230000000
331 3 1.7730000000 3.0450000000 15.2450000000
332 3 14.4200000000 7.5160000000 0.6780000000
333 3 13.6810000000 8.5080000000 -0.2980000000
334 3 11.4450000000 1.8210000000 2.9880000000
335 3 12.2070000000 0.6240000000 2.6870000000
336 3 12.5380000000 15.8850000000 12.1940000000
337 3 12.1560000000 16.1000000000 13.7150000000
338 3 7.8730000000 8.8990000000 0.5390000000
339 3 7.6640000000 9.8500000000 17.0700000000
340 3 6.4420000000 8.6530000000 2.6210000000
341 3 7.0090000000 10.1460000000 2.1830000000
342 3 13.2530000000 2.0680000000 17.7450000000
343 3 13.3340000000 2.4840000000 19.1610000000
344 3 14.0080000000 16.0180000000 10.4230000000
345 3 0.3310000000 15.4650000000 9.4860000000
346 3 6.3260000000 10.9480000000 15.4880000000
347 3 7.7490000000 11.1630000000 14.8830000000
348 3 5.3280000000 11.8370000000 2.2730000000
349 3 6.3790000000 12.2980000000 1.2300000000
350 3 5.8960000000 6.2460000000 2.2280000000
351 3 5.3090000000 5.3390000000 1.1350000000
352 3 15.2590000000 10.9710000000 2.3840000000
353 3 15.7930000000 12.4740000000 2.4160000000
354 3 3.8060000000 14.5890000000 14.7320000000
355 3 5.2220000000 15.1200000000 14.6780000000
356 3 9.4330000000 6.8660000000 2.6070000000
357 3 8.2850000000 7.7150000000 2.5200000000
358 3 3.9150000000 6.5200000000 -0.9440000000
359 3 4.5470000000 5.1620000000 16.6300000000
360 3 -0.4450000000 9.3010000000 15.3610000000
361 3 13.2620000000 8.5760000000 14.7160000000
362 3 2.8810000000 16.2060000000 1.5060000000
363 3 2.9240000000 0.5560000000 2.0280000000
364 3 3.6990000000 4.5170000000 3.1310000000
365 3 2.4900000000 4.4600000000 2.2980000000
366 3 3.5960000000 11.4760000000 3.8560000000
367 3 2.8030000000 11.6260000000 2.4520000000
368 3 14.6840000000 9.3120000000 3.7570000000
369 3 14.0550000000 9.0840000000 2.3120000000
370 3 11.1670000000 10.7670000000 2.3010000000
371 3 11.0110000000 9.3400000000 2.8880000000
372 3 8.7760000000 0.4340000000 3.0960000000
373 3 9.7800000000 16.3830000000 2.7210000000
374 3 2.9020000000 8.1360000000 -1.7530000000
375 3 4.0740000000 8.7490000000 -2.5160000000
376 3 6.6360000000 3.4520000000 0.5310000000
377 3 6.8320000000 1.9550000000 0.1020000000
378 3 6.9400000000 14.6590000000 16.9620000000
379 3 7.4690000000 13.2840000000 16.5440000000
380 3 12.5390000000 14.6680000000 2.0870000000
381 3 12.4330000000 13.6520000000 0.9850000000
382 3 -0.1520000000 6.7950000000 15.8070000000
383 3 13.4060000000 5.9050000000 15.7040000000
384 3 8.8700000000 0.6630000000 -0.0520000000
385 3 7.8170000000 0.4050000000 -1.1340000000
386 3 8.8010000000 14.0750000000 13.8060000000
387 3 9.1260000000 13.7640000000 12.3010000000
388 3 10.8040000000 12.6500000000 15.2040000000
389 3 10.4320000000 14.0010000000 15.8760000000
390 3 4.9370000000 5.8180000000 14.3760000000
391 3 5.8990000000 4.6620000000 14.4620000000
392 3 3.1950000000 1.9450000000 3.9120000000
393 3 4.4780000000 1.5590000000 3.1200000000
394 3 1.6340000000 15.5360000000 14.7000000000
395 3 1.9730000000 16.7920000000 15.4310000000
396 3 8.9640000000 5.5190000000 -0.1410000000
397 3 7.9410000000 5.6840000000 0.9730000000
398 3 10.6870000000 16.7380000000 15.8330000000
399 3 11.3570000000 0.9020000000 15.2910000000
400 3 2.2470000000 8.5630000000 1.8640000000
401 3 1.6990000000 7.3110000000 2.1430000000
402 3 6.9820000000 4.0800000000 2.4940000000
403 3 7.3690000000 3.7470000000 3.9140000000
404 3 10.7420000000 3.5150000000 4.1720000000
405 3 9.5410000000 3.7630000000 3.1540000000
406 3 0.8350000000 1.2810000000 2.6840000000
407 3 0.3860000000 0.7340000000 4.2230000000
408 3 15.8370000000 5.3010000000 1.1460000000
409 3 14.6310000000 5.8280000000 2.2430000000
410 3 12.7240000000 12.7720000000 12.4630000000
411 3 11.7040000000 13.9450000000 12.8610000000
412 3 1.0970000000 4.6780000000 13.5080000000
413 3 12.2390000000 4.2010000000 12.4330000000
414 3 7.3930000000 4.5690000000 12.4430000000
415 3 14.2490000000 11.0920000000 13.2790000000
416 3 9.1300000000 11.1100000000 13.5680000000
417 3 3.1270000000 12.1920000000 12.4820000000
418 3 14.2510000000 3.0190000000 13.7510000000
419 3 8.8800000000 2.8150000000 13.3560000000
420 3 3.9410000000 3.3240000000 12.9910000000
421 3 1.5350000000 7.1540000000 13.4080000000
422 3 10.8710000000 7.7620000000 12.8230000000
423 3 6.3780000000 7.1630000000 13.2430000000
424 3 8.5450000000 4.5580000000 5.4340000000
425 3 13.6510000000 4.0850000000 5.7680000000
426 3 2.6010000000 4.4620000000 4.7250000000
427 3 1.3100000000 9.3680000000 12.5150000000
428 3 10.6320000000 9.7130000000 12.6410000000
429 3 5.9850000000 9.5410000000 12.4800000000
430 3 2.2340000000 1.7640000000 13.6440000000
431 3 11.8220000000 2.1990000000 13.5030000000
432 3 6.2950000000 0.7140000000 12.7830000000
433 3 14.5960000000 8.4420000000 12.4230000000
434 3 8.2700000000 8.6090000000 13.2870000000
435 3 3.6410000000 8.4920000000 13.3910000000
436 3 13.9140000000 6.2320000000 13.6470000000
437 3 9.0190000000 6.0190000000 13.4860000000
438 3 3.5100000000 5.1470000000 12.6420000000
439 3 5.6500000000 6.0830000000 4.6760000000
440 3 10.3780000000 5.6820000000 4.8220000000
441 3 0.2150000000 6.0670000000 4.7640000000
442 3 4.9820000000 3.7480000000 5.6070000000
443 3 5.7950000000 11.3570000000 4.6740000000
444 3 10.1420000000 3.6390000000 6.0910000000
445 3 10.7270000000 11.0010000000 4.7240000000
446 3 0.6930000000 2.5580000000 4.8850000000
447 3 1.0330000000 11.1590000000 4.5950000000
448 3 5.7800000000 0.1650000000 5.0000000000
449 3 6.2120000000 8.7120000000 5.6020000000
450 3 9.8950000000 0.0020000000 4.8600000000
451 3 10.0690000000 8.6730000000 4.7640000000
452 3 1.3820000000 16.8430000000 5.7840000000
453 3 1.1590000000 8.5470000000 5.4310000000
454 3 2.2890000000 11.3230000000 9.4670000000
455 3 14.4700000000 9.5960000000 9.4020000000
456 3 12.7890000000 12.0730000000 10.3010000000
457 3 9.3180000000 10.8140000000 9.5960000000
458 3 7.0890000000 11.5400000000 9.6330000000
459 3 4.5770000000 10.9350000000 9.5210000000
460 3 2.3240000000 2.6900000000 9.7650000000
461 3 -0.0010000000 1.7780000000 9.8540000000
462 3 12.1820000000 2.7600000000 9.7150000000
463 3 10.3060000000 1.3770000000 9.6280000000
464 3 7.2440000000 2.0500000000 9.5280000000
465 3 5.0670000000 1.4640000000 9.5450000000
466 3 2.5000000000 5.4340000000 9.7860000000
467 3 12.3120000000 5.2980000000 9.8490000000
468 3 7.2860000000 6.0780000000 9.5040000000
469 3 7.6900000000 1.4210000000 4.7950000000
470 3 13.0830000000 1.6650000000 4.9490000000
471 3 2.6730000000 0.8730000000 5.5310000000
472 3 14.5080000000 13.5040000000 10.2180000000
473 3 8.9020000000 13.0520000000 10.3420000000
474 3 14.0150000000 4.1320000000 10.6520000000
475 3 9.0920000000 4.0730000000 10.3100000000
476 3 4.1660000000 4.0770000000 10.1970000000
477 3 4.0250000000 12.7990000000 10.2410000000
478 3 1.6900000000 8.8360000000 10.1820000000
479 3 11.3170000000 8.2640000000 10.3450000000
480 3 6.4710000000 8.6050000000 10.1370000000
481 3 1.6990000000 17.1630000000 10.2150000000
482 3 11.8150000000 16.8460000000 10.6000000000
483 3 7.0130000000 16.6150000000 10.7680000000
484 3 -0.6370000000 6.7780000000 9.6220000000
485 3 9.6760000000 6.7170000000 9.5520000000
486 3 4.4670000000 6.6480000000 9.4840000000
487 3 4.9020000000 13.7440000000 5.5370000000
488 3 9.9840000000 13.6570000000 5.9050000000
489 3 14.7870000000 13.6820000000 5.8850000000
490 3 8.0300000000 13.1180000000 4.9390000000
491 3 12.4450000000 13.1210000000 4.8840000000
492 3 2.2690000000 13.1560000000 4.8500000000
493 3 8.1530000000 10.3680000000 4.6120000000
494 3 13.0120000000 10.1770000000 4.6060000000
495 3 2.8090000000 9.4600000000 5.3370000000
496 3 12.8130000000 8.8100000000 7.7840000000
497 3 3.5520000000 0.1250000000 8.7290000000
498 3 3.6990000000 8.6710000000 8.5670000000
499 3 8.1950000000 8.8170000000 8.3730000000
500 3 13.2280000000 0.0530000000 8.5650000000
501 3 8.3840000000 0.2140000000 8.7370000000
502 3 1.5540000000 7.1000000000 8.5590000000
503 3 11.4570000000 7.5710000000 8.2590000000
504 3 6.5920000000 7.9610000000 7.8610000000
505 3 1.8190000000 16.3020000000 8.2110000000
506 3 10.9590000000 15.7340000000 8.7540000000
507 3 6.5230000000 16.4190000000 8.2720000000
508 3 13.8340000000 11.4230000000 8.5270000000
509 3 9.0870000000 12.2730000000 7.7470000000
510 3 4.1580000000 12.3780000000 7.5440000000
511 3 14.1020000000 3.5590000000 8.1730000000
512 3 8.6950000000 2.8620000000 8.6310000000
513 3 4.2850000000 3.5720000000 7.9150000000
514 3 4.2370000000 5.2420000000 7.9320000000
515 3 14.3810000000 5.3530000000 7.7530000000
516 3 8.9360000000 5.1710000000 7.9240000000
517 3 3.6910000000 14.4680000000 8.7630000000
518 3 13.9610000000 13.6340000000 8.0680000000
519 3 8.7690000000 14.6370000000 8.7870000000
520 3 1.2290000000 4.4650000000 8.6450000000
521 3 10.8130000000 4.1980000000 8.7310000000
522 3 6.1340000000 4.4230000000 8.7520000000
523 3 0.9520000000 12.6910000000 8.5220000000
524 3 11.1380000000 12.8820000000 8.7570000000
525 3 5.9930000000 12.9920000000 8.7360000000
526 3 1.8160000000 9.3570000000 7.6590000000
527 3 11.1160000000 10.2700000000 8.7150000000
528 3 6.0240000000 10.0390000000 8.5310000000
529 3 1.7840000000 1.3150000000 8.6500000000
530 3 11.3970000000 0.6130000000 8.0390000000
531 3 6.7250000000 0.9180000000 7.9370000000
532 3 3.0020000000 6.9400000000 4.7040000000
533 3 12.1680000000 7.7790000000 5.7210000000
534 3 7.9590000000 6.9120000000 4.7020000000
535 3 3.4180000000 15.4920000000 4.9570000000
536 3 12.4050000000 16.7090000000 5.9200000000
537 3 7.6030000000 16.4470000000 5.6410000000
ITEM: TIMESTEP
1
ITEM: NUMBER OF ATOMS
537
ITEM: BOX BOUNDS pp pp pp
0 14.841000
0 17.165000
0 17.836000
ITEM: ATOMS id type x y z
1 1 0.5790000000 11.6050000000 11.1870000000
2 1 13.0580000000 9.9980000000 11.4830000000
3 1 10.6670000000 11.5800000000 11.4780000000
4 1 8.2370000000 10.1650000000 11.6780000000
5 1 5.7010000000 11.6970000000 11.3450000000
6 1 3.1910000000 10.2150000000 11.4220000000
7 1 0.9190000000 3.0940000000 11.6250000000
8 1 13.3680000000 1.4410000000 11.7610000000
9 1 10.7040000000 2.7960000000 11.6320000000
10 1 8.3820000000 1.1980000000 11.4190000000
11 1 5.8520000000 2.7880000000 11.6240000000
12 1 3.2670000000 1.3810000000 11.4300000000
13 1 0.8120000000 5.8900000000 11.5570000000
14 1 3.3400000000 7.3350000000 11.4660000000
15 1 10.5850000000 5.6920000000 11.5850000000
16 1 13.0130000000 7.1500000000 11.5570000000
17 1 5.6730000000 5.7700000000 11.4030000000
18 1 8.1690000000 7.1640000000 11.6010000000
19 1 4.5320000000 7.3290000000 6.6530000000
20 1 2.0330000000 5.8360000000 6.6640000000
21 1 14.4160000000 7.3830000000 6.5040000000
22 1 11.9780000000 5.8570000000 6.8610000000
23 1 9.4570000000 7.1390000000 6.7160000000
24 1 6.9150000000 5.8200000000 6.7000000000
25 1 4.6110000000 15.8720000000 6.7290000000
26 1 2.1560000000 14.4760000000 6.8180000000
27 1 14.3630000000 15.7070000000 6.7650000000
28 1 11.8720000000 14.4090000000 6.8900000000
29 1 9.4560000000 15.9060000000 6.7420000000
30 1 7.0220000000 14.4090000000 6.7530000000
31 1 14.5930000000 10.1590000000 6.7210000000
32 1 2.2870000000 11.5210000000 6.5330000000
33 1 9.6320000000 10.0520000000 6.7010000000
34 1 12.0880000000 11.5480000000 6.8140000000
35 1 7.2040000000 11.5240000000 6.7310000000
36 1 4.7840000000 10.0730000000 6.5640000000
37 1 14.5330000000 1.4860000000 6.8850000000
38 1 2.1800000000 3.0440000000 6.8460000000
39 1 9.6300000000 1.5210000000 6.7740000000
40 1 12.0680000000 2.8550000000 6.8520000000
41 1 4.6950000000 1.5810000000 6.6310000000
42 1 7.1550000000 2.9830000000 6.7620000000
43 2 1.4750000000 13.2260000000 12.1820000000
44 2 10.4400000000 15.7110000000 10.5340000000
45 2 6.2910000000 13.0030000000 12.7080000000
46 2 14.5080000000 17.1410000000 12.9260000000
47 2 9.3640000000 0.0320000000 12.9860000000
48 2 3.6810000000 16.9140000000 12.3640000000
49 2 1.2140000000 10.3010000000 15.3260000000
50 2 14.6170000000 14.4850000000 13.8760000000
51 2 11.9390000000 6.4090000000 15.3080000000
52 2 11.3590000000 10.9700000000 15.2190000000
53 2 0.9230000000 17.8920000000 16.6580000000
54 2 0.0730000000 2.9280000000 15.3750000000
55 2 11.0680000000 7.8580000000 1.5970000000
56 2 10.8020000000 8.7880000000 16.9520000000
57 2 11.5230000000 11.2970000000 18.0680000000
58 2 11.6280000000 2.9490000000 15.5400000000
59 2 4.5700000000 10.5050000000 14.9800000000
60 2 13.3060000000 -0.3630000000 17.7900000000
61 2 6.3950000000 0.6760000000 3.0070000000
62 2 13.8180000000 12.2460000000 15.5730000000
63 2 7.0610000000 16.2920000000 15.2650000000
64 2 5.3410000000 15.4920000000 10.9710000000
65 2 3.7680000000 2.1090000000 17.6540000000
66 2 14.1790000000 13.3370000000 0.1820000000
67 2 0.6940000000 14.3090000000 3.2870000000
68 2 13.4400000000 15.7960000000 2.7290000000
69 2 10.9350000000 4.3390000000 0.2930000000
70 2 8.4260000000 7.5150000000 15.1770000000
71 2 9.5890000000 14.5790000000 3.1330000000
72 2 6.8410000000 14.7510000000 2.9960000000
73 2 4.9840000000 7.7940000000 2.9380000000
74 2 12.5520000000 6.2290000000 3.3250000000
75 2 2.9380000000 14.0730000000 17.5110000000
76 2 5.7040000000 1.4410000000 15.2950000000
77 2 9.9820000000 15.2000000000 -0.3630000000
78 2 2.0740000000 4.3400000000 0.5770000000
79 2 3.8490000000 14.6930000000 2.8660000000
80 2 8.4780000000 3.2900000000 15.2730000000
81 2 3.4590000000 11.3680000000 -0.4180000000
82 2 2.2220000000 8.7120000000 -0.0800000000
83 2 3.0260000000 2.9710000000 15.0060000000
84 2 14.5330000000 8.5160000000 0.3630000000
85 2 12.4150000000 1.4940000000 2.8240000000
86 2 12.0500000000 15.6410000000 13.1950000000
87 2 8.1960000000 9.1720000000 17.4550000000
88 2 7.3370000000 9.5270000000 2.2440000000
89 2 13.4610000000 2.7980000000 18.3920000000
90 2 15.0070000000 15.3390000000 10.7310000000
91 2 7.3120000000 11.1850000000 15.6530000000
92 2 5.8530000000 11.8060000000 1.3930000000
93 2 5.5330000000 5.5240000000 1.7080000000
94 2 0.7080000000 11.8320000000 2.1420000000
95 2 4.6570000000 14.4940000000 14.7670000000
96 2 8.8660000000 6.9300000000 2.9930000000
97 2 4.3390000000 5.6790000000 -0.6130000000
98 2 -1.2650000000 8.9190000000 15.5860000000
99 2 2.1230000000 16.7870000000 1.2990000000
100 2 2.9470000000 5.0770000000 3.0050000000
101 2 3.5890000000 11.6780000000 3.1750000000
102 2 14.0190000000 9.6750000000 3.0850000000
103 2 10.9780000000 10.4550000000 3.0870000000
104 2 9.4090000000 0.1240000000 2.4890000000
105 2 3.4930000000 7.9310000000 -2.4320000000
106 2 6.2430000000 2.5350000000 0.6980000000
107 2 7.4850000000 13.9750000000 17.3980000000
108 2 11.8080000000 14.2290000000 1.3650000000
109 2 14.5670000000 5.9940000000 15.5520000000
110 2 8.0550000000 0.2420000000 -0.2930000000