ITEM: TIMESTEP
0
ITEM: NUMBER OF ATOMS
537
ITEM: BOX BOUNDS pp pp pp
0 14.841000
0 17.165000
0 17.836000
ITEM: ATOMS id type x y z
1 1 1.9738003937 11.7408322915 11.7187001664
2 1 14.2847772559 9.9675221042 11.7907123847
3 1 11.9308515454 11.4760243362 11.8561572782
4 1 9.3570675652 10.0041637045 11.8033594414
5 1 6.8663587294 11.6749397367 11.9311658772
6 1 4.4948618817 10.0769079401 11.7333794629
7 1 2.0556752439 2.9743484084 11.9497439969
8 1 14.5336959193 1.3522722404 12.2211654286
9 1 11.9266470398 2.5614126512 11.9280348586
10 1 9.3310554914 1.1309195649 11.9147860577
11 1 6.8528405005 2.6051986835 11.9652201679
12 1 4.4257580270 1.2219539531 11.9253262084
13 1 1.9522358956 5.7550075714 11.8858139236
14 1 4.4133706525 7.1949195070 11.8597917327
15 1 11.8109685876 5.5064253253 11.9407442733
16 1 14.1903478521 7.0585668816 11.9865983436
17 1 6.8817439967 5.5582353329 11.9384625489
18 1 9.2870491191 7.0739750872 11.9337528362
19 1 4.8147177402 7.1853411166 7.0234547766
20 1 2.2909470503 5.7186956119 7.1500303197
21 1 14.5597301587 7.1195632393 7.1090025310
22 1 12.2252248823 5.5336763126 7.0789940020
23 1 9.6905955912 7.0678310804 6.9710469761
24 1 7.2559960466 5.6350695121 6.9723209374
25 1 4.5275259363 15.8168912461 6.9256247708
26 1 2.0687527858 14.2168200697 6.8349147395
27 1 14.5287399275 15.6763670676 6.9697530063
28 1 12.0213687042 14.3435121573 7.0426346386
29 1 9.5182055195 15.6316869013 7.2481040971
30 1 7.0396482039 14.3248561046 7.1214873943
31 1 14.5993931021 9.9606171748 6.9106394107
32 1 2.1700692230 11.3924010266 6.9564161215
33 1 9.6600140837 9.9634102597 7.0176157838
34 1 12.1395076239 11.4038369143 7.0347395388
35 1 7.3015577885 11.4488211039 7.1320451231
36 1 4.7209469716 10.0863129914 6.9241320289
37 1 14.4588790523 1.3470435898 7.0091492357
38 1 2.1195986965 2.9676229928 7.0730275756
39 1 9.6368346474 1.2931700331 7.1305040969
40 1 12.0374988034 2.7319888776 7.0332470935
41 1 4.5420595233 1.4204335890 7.1145882768
42 1 7.1563938938 2.7253027739 7.0545563633
43 2 2.5627590700 13.3131506015 12.8063306465
44 2 11.8826480569 15.4716781817 10.8853478501
45 2 7.6561995677 13.0480817838 13.0402431136
46 2 15.6221747877 17.2590196213 13.3639108850
47 2 10.3384382270 -0.4152924511 13.4818084139
48 2 5.3733783482 17.0878820773 13.1942218921
49 2 2.4360079142 11.6046645194 15.2919078689
50 2 16.4490805236 15.1887302572 15.5084391386
51 2 10.9724835204 4.6239872468 15.3503365927
52 2 12.5936585646 10.1206798444 15.5990928443
53 2 4.1976680443 17.5031571261 18.2952536067
54 2 0.0744547472 2.3724073178 16.2653328956
55 2 10.3587302637 8.6824085652 1.5196021718
56 2 10.3939766926 8.2051910635 15.3019174235
57 2 9.5458387228 10.9001755115 18.3291169472
58 2 11.8598267934 1.8639670182 15.6833743427
59 2 5.7229959371 11.9248749756 15.7375694801
60 2 14.4929228718 0.0760871951 18.1868496900
61 2 8.6805562066 0.3070256871 3.5055241328
62 2 14.6182175816 12.0679750208 16.1479444379
63 2 8.3453531032 17.0744026148 16.2406524605
64 2 5.8873661486 15.4990488145 11.1175228748
65 2 4.2774641138 3.1567880939 19.0180693516
66 2 14.3230374266 14.0303007833 0.3075166317
67 2 0.9127015088 14.5433613276 2.9848559788
68 2 12.6815381685 14.4915748039 3.2573276211
69 2 11.0569411779 6.1366206675 0.0688834343
70 2 7.6075360241 8.4531470690 15.9228334534
71 2 8.7207065199 14.5969242389 3.7999597863
72 2 5.2802692845 15.7042798185 3.5281405738
73 2 5.3072826956 8.7430414567 3.3035037912
74 2 13.4165950893 6.0478073467 3.5431829310
75 2 6.8781545302 17.3382297372 18.5818665378
76 2 5.6467791376 1.7540551216 15.8697029071
77 2 10.0155588410 14.9651964732 0.0003705136
78 2 2.3027666806 5.2291128864 0.5501129259
79 2 3.5172379736 14.5657734775 1.6657482286
80 2 8.7510472476 2.8596933397 15.6021552275
81 2 5.8477720539 11.9980217779 1.4300421443
82 2 2.4069499160 10.9090677301 0.2407387686
83 2 2.7775740018 2.9133924844 15.6337725837
84 2 13.3062361852 8.6596903184 0.4971875501
85 2 12.9433584326 1.9009233485 2.3515330384
86 2 13.3624586944 15.1246029578 13.7192030690
87 2 5.1068286645 9.7508750034 17.3469085484
88 2 7.2034087459 8.7799744991 1.1684029406
89 2 13.1176383261 3.6550770324 17.8160238311
90 2 16.5359959029 15.2865768411 11.6879295746
91 2 8.8196667819 11.5726177846 15.4631856057
92 2 8.1274821911 11.4074532079 3.3681043069
93 2 5.6767936457 6.1176003067 2.7293145390
94 2 0.8571624995 11.6105650161 2.7826914147
95 2 6.8119105376 14.6873218121 15.3818575934
96 2 9.4064672232 6.8157396036 3.5475292857
97 2 5.2623160888 6.5989835633 0.0225067082
98 2 -1.6949959029 6.8065316874 16.0099986789
99 2 3.2242758543 17.7302516139 2.9249907821
100 2 3.1689490807 5.2581523800 3.5963742209
101 2 3.6334405680 10.9789642442 3.2580801223
102 2 15.0737144035 8.5725524048 2.6208533511
103 2 11.9572638535 10.5130092807 3.2380979224
104 2 10.9708137694 -0.7037588486 2.0902991127
105 2 3.3349869822 8.8010488454 -2.2189929658
106 2 7.0222852156 3.4983080676 0.4298152150
107 2 7.5837771608 14.5643549867 19.1437100440
108 2 11.5468112024 12.6782955317 1.3366199920
109 2 16.1350786503 6.7387070010 15.8149298674
110 2 9.7782701352 1.5832778104 0.4326184280
111 2 10.0498961953 14.0341720600 13.6008748435
112 2 11.5250314593 12.6940542365 15.9987870677
113 2 6.1620230203 5.5860829596 15.4267859453
114 2 5.6639615238 1.8039011962 3.5541103784
115 2 4.2015238924 16.0186888484 15.6863794974
116 2 8.2827011500 5.8712185629 0.8097107799
117 2 12.4108793534 16.3129336776 16.1994278038
118 2 2.4154324406 8.0776895617 1.1331301278
119 2 8.4423323012 3.8189893485 3.2344551516
120 2 11.2148687920 4.2070668862 2.8586519701
121 2 0.4682230374 1.0757868401 3.4553992597
122 2 14.3847263190 5.9393930738 1.0256748460
123 2 12.8424387723 12.6833647249 13.4260290022
124 2 2.7680335684 4.3781915309 12.9410905129
125 2 12.4941956325 4.0030125563 13.0561902039
126 2 7.6170034803 4.1901780243 12.9169028314
127 2 15.2260515862 11.3575884340 12.8479995105
128 2 10.3662205264 11.3165267316 12.8557834669
129 2 5.3316007828 11.6605241154 12.8934934903
130 2 15.2666371843 2.8565058339 13.0153745562
131 2 10.3641370189 2.3511651624 13.0090414745
132 2 5.3459294642 2.5456421264 13.0968204588
133 2 2.7979971890 7.1958322174 12.8820744100
134 2 12.6628807846 6.7258617938 13.0918446800
135 2 7.7701272082 6.9484585771 12.9937013720
136 2 7.8633676566 4.1668718166 5.9590749778
137 2 12.7524641244 4.1112710883 5.9749033647
138 2 2.9291861787 4.3308995087 6.0959455202
139 2 2.8743704369 10.3185025192 12.8110622250
140 2 12.6741259796 10.0142318183 12.9530495169
141 2 7.7735175438 10.3101950927 13.0031926565
142 2 2.7959664634 1.5675171536 13.1200220365
143 2 12.9168400441 1.0900940156 12.9978618446
144 2 7.8861549210 1.3022722499 13.0632671396
145 2 14.8494032226 8.5127883106 12.9670443092
146 2 10.0285613944 8.5804263563 12.8748339960
147 2 5.2274514015 8.6577011601 12.8917148518
148 2 15.2404417070 5.7468673349 13.0655679552
149 2 10.0783864932 5.4799178175 12.8937198606
150 2 5.3189679267 5.8493601445 13.0414724831
151 2 5.6205677737 5.8707279596 6.0292924464
152 2 10.6145437324 5.7632043708 5.9182870134
153 2 0.7060774132 5.7371811371 6.1218735368
154 2 5.5479744482 2.7500129319 6.0859144097
155 2 5.7092031916 11.3794049629 6.0163187250
156 2 10.4300643182 2.6397195167 5.9512641206
157 2 10.5996087206 11.2326091322 5.9111868174
158 2 0.4974878859 2.8223929704 6.0887497639
159 2 0.6585732268 11.2068490282 5.8923951257
160 2 5.1622871927 17.2347150975 5.9455664852
161 2 5.5048345813 8.6059115178 5.9346417848
162 2 10.2846953314 -0.2094103209 6.1529476999
163 2 10.3742697111 8.5300737825 6.0025655110
164 2 0.4165776320 17.1116759846 5.9345923793
165 2 0.3051570154 8.5047141208 5.7648503229
166 2 3.5492150850 11.5036364335 10.8089724738
167 2 15.9331015590 10.0138022789 10.8521321555
168 2 13.4718637339 11.2925702812 10.8367475083
169 2 10.9064960131 10.3086761926 10.8036351916
170 2 8.5068936070 11.5492003387 10.9666486691
171 2 6.1513041316 10.1751174331 10.8539404105
172 2 3.6149982302 2.6715652669 11.0035157272
173 2 16.1286708570 1.5498383293 11.0738396984
174 2 13.5319051766 2.6072025596 11.0275832579
175 2 11.0145418385 1.1823029977 11.1005484180
176 2 8.4727335418 2.5412236023 10.9499296284
177 2 6.0440078951 1.2567354802 10.9726713654
178 2 3.5798348436 5.8217661982 10.9569492636
179 2 13.4923849623 5.5919541511 11.0557034453
180 2 8.4989831849 5.7758278442 10.8517181358
181 2 7.9018352540 1.3649273307 6.0306941193
182 2 12.9226272331 1.3993007201 5.9290961769
183 2 2.9326019314 1.5606774551 5.9939723510
184 2 1.0157349119 12.6919514090 10.4298773201
185 2 11.2594657322 12.9394827027 11.0263776334
186 2 16.1067547946 4.3733866398 10.8346197530
187 2 11.1805628596 3.9991129016 10.8517340331
188 2 6.0430785760 4.0899269147 10.9780648534
189 2 6.0967165813 13.0490467187 10.6567672982
190 2 3.8519326767 8.6633526066 10.7672102229
191 2 13.7037807354 8.4627236149 10.7885745871
192 2 8.5989255145 8.5321217289 10.8481335144
193 2 3.6475678842 -0.1885330469 10.9739337166
194 2 14.1410092016 -0.3650842830 10.8903252350
195 2 8.8078303180 -0.1765020164 10.8885684198
196 2 15.8091170143 6.8838198731 10.7780210378
197 2 10.9796323659 6.8917744811 10.9114517975
198 2 5.9940696490 6.9368206284 10.8399757621
199 2 5.4834225883 14.4136087167 5.8954584783
200 2 10.4236699285 14.4543197806 6.0418284300
201 2 0.5335365592 14.3023964987 5.7446730138
202 2 7.7485970033 12.8911162502 5.9963211121
203 2 12.8277883245 12.8193629295 5.8158152769
204 2 2.8027198463 12.9075966388 5.9075024694
205 2 8.0849294368 10.1550528685 6.0111359335
206 2 12.9504625868 10.1239621508 5.9828057578
207 2 3.1524880001 10.1028558518 5.8911318973
208 2 13.8442443681 8.5296064233 7.9515172973
209 2 3.8497549387 0.0121736272 7.9904165776
210 2 3.9821114104 8.5351355567 7.8292333995
211 2 8.8198320448 8.5978246660 8.0609968508
212 2 13.8375874961 -0.0538030827 8.0128839797
213 2 8.8381899539 -0.0587621017 8.1884781924
214 2 1.3446041104 7.1154039813 7.9774834144
215 2 11.2358266575 6.8640557727 8.1104242000
216 2 6.4944910824 6.9039756175 8.1906830745
217 2 1.3569733232 15.5734907153 7.8881648562
218 2 11.2230901330 15.5272676410 8.1633738991
219 2 6.0938781401 15.6373920148 8.0855317086
220 2 13.7257312752 11.1917140467 8.0129288290
221 2 8.9347695106 11.2803199329 8.1014743950
222 2 3.8297856597 11.2820159755 8.0658506691
223 2 13.6100926519 2.6259700843 8.1767468699
224 2 8.7983612680 2.6195031569 8.0903309724
225 2 3.7033503596 2.7327876311 8.2495167481
226 2 3.8817916018 5.8657232907 8.1378044522
227 2 13.7399660714 5.7260523616 8.0885277888
228 2 8.8521190746 5.7066572395 8.0718667081
229 2 3.6789253254 14.3861002676 7.8320834388
230 2 13.6472144884 14.4132358297 7.9717607996
231 2 8.6410038265 14.3096996793 8.1988798117
232 2 1.4916809841 4.3079905586 8.1881323826
233 2 11.3379105794 4.1251799240 8.0504561410
234 2 6.5341316120 4.1001774296 8.0141961018
235 2 1.3668258902 12.7698150408 7.8456799201
236 2 11.4272042316 12.8773056523 8.0717257183
237 2 6.5607774030 12.8119727095 8.0350091872
238 2 1.3589203816 10.0269415955 7.9485905516
239 2 11.2654128997 10.0816251101 8.1194043508
240 2 6.3721364889 10.1469673828 8.1150865022
241 2 1.2437252008 1.5801967180 8.0758692642
242 2 11.2865095100 1.3541058115 8.1430897676
243 2 6.1970644642 1.4358716550 8.2364348012
244 2 3.0959303733 7.0559206865 5.9824813523
245 2 12.9872509978 6.8685845642 5.9972765271
246 2 8.0924467532 7.0628473013 6.1262793850
247 2 3.0346552027 15.5980442860 5.7849097011
248 2 12.8703387686 15.6235875587 6.0050552884
249 2 7.9324335682 15.6706774916 6.1439007727
250 3 2.5305463217 13.3150224477 13.7964653152
251 3 1.8971598563 14.4075673414 12.2732565906
252 3 11.6783769161 14.5081910293 10.9993363496
253 3 11.1186203029 16.0600620189 11.0643037250
254 3 8.6044844406 13.3090067027 13.1278732685
255 3 7.1764748835 13.6378936320 13.6544171228
256 3 15.9056004066 16.4923174733 12.7777739491
257 3 16.5022090591 0.6406272987 13.3686100515
258 3 11.2612646372 -0.5028336008 13.8046052145
259 3 10.1358624429 15.7713549487 13.4369413920
260 3 5.7223456019 16.3236312473 12.5903222519
261 3 4.8543132310 16.6321217127 13.9189600217
262 3 2.8594775017 11.4378978341 16.2082384840
263 3 2.7736889693 11.0169090876 14.6359530851
264 3 16.0541677550 14.4990954009 16.1125193305
265 3 15.6297071191 15.7185924257 15.2851277710
266 3 11.6748583522 4.3917423630 14.7222724774
267 3 10.3072772821 3.9029018907 15.3742488112
268 3 12.7053490937 10.0595534062 14.6070121260
269 3 11.8032373153 9.5481216241 15.7630140058
270 3 3.4967965491 17.5442501573 18.9922761853
271 3 4.3614514284 18.4550917828 18.1659467112
272 3 14.8823246749 1.4583879065 16.6947921744
273 3 -0.5798342809 2.8608378832 16.8460686963
274 3 10.0797321553 9.4726469457 1.0325153369
275 3 11.0016492260 8.3327514382 0.8571557941
276 3 9.4979073664 8.3957960955 15.7386540775
277 3 10.8219809066 7.4445392966 15.7250427051
278 3 9.1929038056 11.1159350928 17.4381017155
279 3 10.1470998487 11.6403712154 18.5383371233
280 3 10.9947574892 2.0036683254 16.1435380959
281 3 12.3506020735 2.6433280832 15.8682504817
282 3 5.6245363230 11.9273454280 14.7140035917
283 3 6.3631800047 12.6402657971 15.8927446758
284 3 13.6259473399 16.9150398395 17.7826940039
285 3 14.8568966906 16.4871731519 18.6953694926
286 3 8.2998232867 0.6316761753 2.6202433986
287 3 9.2410279708 16.7427328414 3.2551069298
288 3 14.1165070790 11.2744780475 15.9542001345
289 3 0.6357742355 11.9946351527 15.7299369488
290 3 7.4863812365 0.2321136912 16.6126871239
291 3 8.4363529338 0.4599994917 15.4707742130
292 3 4.9766722801 15.7784622315 11.0472203919
293 3 5.9474335473 14.4523802817 11.1556339952
294 3 4.4036342666 2.9904580265 19.9805895801
295 3 5.1807510344 3.2877896935 0.8527383197
296 3 0.2042936901 14.1219961393 0.9772504064
297 3 14.5284986648 13.4322174923 -0.4191172077
298 3 1.6433750183 15.0883036990 2.7836327542
299 3 0.8557831361 14.7094574385 3.9557683157
300 3 12.7138624244 14.7501737180 4.1824358451
301 3 13.6404256159 14.3757992950 3.0419810277
302 3 10.9415798496 5.6847761036 0.9082570372
303 3 11.5208379975 5.5374961398 17.3361481237
304 3 7.5373022078 7.6283480940 15.3179547257
305 3 7.4823396636 9.1665003356 15.3267215868
306 3 9.4638432575 14.1783522825 4.2852558831
307 3 8.1595974825 14.9740667668 4.5526203341
308 3 5.8995978307 16.3416931094 3.1224158165
309 3 5.6085554245 15.3410562283 4.4266595972
310 3 4.7342780584 9.5740629282 3.0395825257
311 3 5.4198345784 8.7638109001 4.2858484221
312 3 12.6069392240 5.4724030075 3.5579242253
313 3 13.3491316823 6.6547502857 4.2816011420
314 3 7.2761903990 16.4618330030 0.8779829897
315 3 5.8909693677 17.2379616701 18.7486707960
316 3 5.8027014335 2.6372751721 16.2532899998
317 3 5.5372951753 1.9664824766 14.9115578195
318 3 9.0767140018 15.3034766813 17.8173238080
319 3 9.8525245966 14.0870206299 0.4227034014
320 3 2.8965603532 6.0087220579 0.6987745056
321 3 2.9371745233 4.4056745919 0.4761313119
322 3 3.4346281733 13.7150003576 2.1358194122
323 3 4.3734652456 14.8731846434 2.0003545603
324 3 8.0806814932 3.1661154620 16.2939308339
325 3 8.1788793331 2.5854639571 14.8178080231
326 3 4.9214712633 11.8767643762 1.2054055118
327 3 6.3013785716 11.4340158221 18.5850505755
328 3 2.5530052783 9.9728551068 0.3430818265
329 3 1.5263312713 11.0409211892 0.5789830001
330 3 3.5220092587 2.4056279405 15.9878133156
331 3 1.9488794928 2.5594471538 16.0544045461
332 3 13.4651881729 7.8245239990 0.0362630834
333 3 13.4392782850 9.3359861400 -0.2374640961
334 3 12.6152371451 1.0140067983 2.0958039026
335 3 13.8697561184 1.5959741242 2.5703070230
336 3 13.2496730073 15.8052692936 13.0006036269
337 3 13.1835340674 15.6860242910 14.5942260761
338 3 5.9310068018 9.3461429498 -0.4064390418
339 3 5.2691967389 10.4967845058 16.7349410258
340 3 6.8012206857 9.0943874472 1.9873551466
341 3 8.0023293157 9.2826103500 1.2994087957
342 3 13.0221001334 2.9726224148 18.5446995748
343 3 13.5982951101 4.4165906775 18.3095106678
344 3 14.9301091275 16.2034275291 10.8832430042
345 3 2.5700529525 15.6285307659 11.4084750569
346 3 8.7145421078 12.5338865875 15.5410576311
347 3 8.2622692935 11.2267439242 14.7435486530
348 3 7.6362119577 11.9205996272 2.6790256223
349 3 8.8422022136 11.0966205941 2.8058756043
350 3 5.4961524095 7.0004316282 3.0486001680
351 3 5.6980394682 6.3730043693 1.8005051467
352 3 15.2426932082 10.7599101549 2.9329747339
353 3 15.2466123774 12.3417133021 3.2349601661
354 3 5.8833285022 15.0770648724 15.4144261338
355 3 7.5356136144 15.4393158114 15.3648582749
356 3 9.3158999104 7.5360666540 2.8477710922
357 3 9.7273154714 6.0401016370 3.0774465080
358 3 4.9176578859 7.3679024451 -0.3852541939
359 3 5.8662640053 6.2009666387 17.1876706488
360 3 -1.4295126451 6.0256864163 16.4719898944
361 3 13.1966548963 6.5401177499 15.1042517194
362 3 3.6481811673 16.8653746183 3.1049446669
363 3 4.0558568716 1.1357612786 3.0612633393
364 3 4.1239315105 5.5844117943 3.3408221414
365 3 2.7797350739 5.1172369613 2.7359871331
366 3 3.4696630420 10.5932590948 4.1661181211
367 3 2.7507686516 10.9784889530 2.7601909648
368 3 14.9362034261 8.1216828461 3.4995835794
369 3 14.2859299196 8.4312225231 2.0355968019
370 3 11.9208752371 11.0766788384 2.4718477791
371 3 11.6533813612 9.6562696712 2.9145553629
372 3 10.6859000679 -1.2900917828 1.3052015332
373 3 11.6727530905 15.8394205451 2.5127916603
374 3 2.7868305866 8.1814523766 -1.7446966214
375 3 4.0193470012 9.0464963353 -1.6016685220
376 3 7.2558125754 4.4414442369 0.4859551145
377 3 7.7965995273 3.1032641335 0.8657384219
378 3 7.1621125675 13.7506205213 18.9803136275
379 3 7.9649475907 14.5131884072 20.0549929658
380 3 11.8669483180 13.2224724148 2.0195907639
381 3 12.0652140762 12.8784145241 0.5591022331
382 3 1.0445327209 6.3632252681 16.6601670910
383 3 15.5435984742 7.5266731484 15.8314427500
384 3 10.4007148673 1.1181679818 1.0594200526
385 3 9.0099207933 0.9585139010 0.3101960602
386 3 10.4483611378 13.6173819401 14.4469026059
387 3 10.6270958877 13.5957264178 12.9218535292
388 3 12.2690208640 13.2659377093 15.7635146116
389 3 11.8572173156 11.8059500195 15.8207508109
390 3 5.8451811673 5.8316285505 14.4673017382
391 3 6.7817445050 4.8405396657 15.1153300862
392 3 5.6299899186 1.9629715203 4.5272103379
393 3 6.3082916793 2.4434246008 3.2091175780
394 3 3.2954578974 15.6179285057 15.5913329687
395 3 4.2417787623 16.4934257955 16.5554412043
396 3 7.9850751119 6.6954007299 1.2035683270
397 3 9.1437187802 6.0817896829 0.2804805419
398 3 11.8066261095 16.0533093719 16.9037539405
399 3 12.2771648205 0.1188371744 16.0460751022
400 3 1.5838231185 8.3344374845 1.6441057782
401 3 3.1235506903 8.1339218576 1.8296860854
402 3 8.2941087208 4.6977100859 2.7896051719
403 3 8.0684095408 3.9769256704 4.0963327259
404 3 11.7005523058 3.4886336441 2.6112324562
405 3 10.3806944923 3.8181783269 3.1914720759
406 3 1.4232855055 0.9205224005 3.3411119347
407 3 0.2507484251 0.4814645973 4.1948526533
408 3 15.3594409344 5.9543917898 1.2115600609
409 3 13.9819234740 6.1657678906 1.9407565640
410 3 13.6360260665 12.2720951763 13.8578129927
411 3 12.8929578628 13.7456943922 13.4732454276
412 3 2.4229541473 4.2878729170 13.8680949165
413 3 13.4973286815 4.1306681085 12.8525864612
414 3 8.5823424944 4.0288142592 13.0001032167
415 3 15.5812196508 11.1815848985 13.7358434032
416 3 10.3075047683 11.2424613034 13.8153788937
417 3 4.5579460536 12.2753423575 12.7190546071
418 3 15.2764119185 3.0649391476 13.9935990663
419 3 10.5480068515 2.3048885639 13.9234306475
420 3 4.7063156910 3.2506931098 13.2388181482
421 3 2.8748459524 6.9177702567 13.8627079765
422 3 12.1031118256 7.5041391119 13.1889981101
423 3 7.0554583973 7.5712664090 13.1434021136
424 3 8.7971700036 4.1783872448 5.6841586877
425 3 13.6807525288 3.9353447306 5.8612001497
426 3 2.8989401883 4.5493035147 5.1579064707
427 3 2.3820556670 9.4651762347 12.8630178464
428 3 11.9806788588 9.3149239812 12.7530514245
429 3 7.1990137837 9.5754877669 13.1598792842
430 3 2.8387603382 1.9538085763 14.0380779933
431 3 12.8001710636 1.2705171155 13.9375727539
432 3 7.2923602771 0.6631189507 13.5080198554
433 3 15.7638897785 8.5134164881 13.3229173339
434 3 10.0832659260 8.5215323017 13.9012559106
435 3 4.6745189006 8.7998297465 13.7093261180
436 3 15.5296042653 6.1961106672 13.9160699094
437 3 10.2092673539 5.5525920487 13.8900816624
438 3 4.5947332929 5.2117034896 13.1957804295
439 3 5.5280781098 5.8715104912 5.0346468037
440 3 10.8006249416 5.8745373283 4.9775570004
441 3 0.3171591302 5.2601080162 5.3802078953
442 3 5.1105541432 3.6032683602 5.9070443562
443 3 5.7304415355 11.4130479250 5.0550453319
444 3 10.5771502789 2.3328197562 5.0555694160
445 3 10.8148409970 10.7084230457 5.1313350745
446 3 0.6857815511 2.4625692088 5.1871857910
447 3 0.7980603240 11.1553706671 4.9400476357
448 3 5.0185764006 -0.0801561747 4.9942442676
449 3 6.4881217360 8.8118310145 6.0361203705
450 3 9.8190282461 -0.2684991104 5.2755191623
451 3 10.1521700340 8.3284478686 5.0932714334
452 3 1.4001629360 16.9203506539 5.9728415245
453 3 1.1852911358 8.2442153261 5.4824119443
454 3 3.4350140538 11.4223978951 9.8406965228
455 3 15.8608498219 10.0611702586 9.9074812571
456 3 14.0895817050 12.0376111613 10.7366462921
457 3 11.0226262838 10.1610541003 9.8303341478
458 3 8.5315797679 11.4318778197 10.0023145037
459 3 5.9496044026 10.3234848061 9.8892432859
460 3 3.6595025911 2.5525452896 9.9985069091
461 3 1.3187982169 1.6389378802 10.0786486402
462 3 13.3434487757 2.3050106269 10.0775784065
463 3 11.0831736684 1.2122155747 10.1336534287
464 3 8.5868756216 2.4079172906 9.9610233472
465 3 6.0512833480 1.5116952610 9.9869379663
466 3 3.6619869415 5.9575259429 9.9347468295
467 3 13.4338585254 5.7601927695 10.1049246207
468 3 8.6391852245 5.9569252300 9.8886325175
469 3 7.9666008386 1.3129563287 5.0258931106
470 3 12.8274869196 1.5610585320 4.9675178508
471 3 3.1242690566 2.0736088793 5.1777795979
472 3 16.1533016223 13.6169614943 10.6351841725
473 3 10.2807725219 12.9165098482 10.9346424970
474 3 15.1537219433 4.2246264028 10.9252111163
475 3 10.2012277703 3.9762371607 10.9191297994
476 3 5.0771252317 4.0623702223 10.9572664275
477 3 5.1435887431 12.9400090453 10.5372590856
478 3 2.8999227263 8.9030961696 10.6258916827
479 3 12.7420159959 8.3688809436 10.6636093851
480 3 7.6360605258 8.3284752959 10.7807794072
481 3 2.8324243486 17.4423656453 10.6955850439
482 3 13.2154264733 16.3581946227 10.8952796045
483 3 7.8667316406 16.8294572781 10.8441777165
484 3 1.2026885484 7.8313047681 10.6982950268
485 3 10.8428646602 6.7993741393 9.9102361939
486 3 6.1676432798 6.8496060973 9.8667349715
487 3 4.9015979528 13.6487863544 5.7893627533
488 3 9.9849417193 13.5851364099 6.1320834530
489 3 14.8180284110 13.4956556121 5.7767144550
490 3 7.8630143412 12.8916702646 5.0311098497
491 3 12.4000746678 12.9057693901 4.9579692867
492 3 2.5514305150 12.9305872488 4.9894974102
493 3 8.0895398695 10.5862491054 5.1277706310
494 3 13.0717313463 10.3090034110 5.0639898008
495 3 2.7700014631 9.2069147088 5.8365404044
496 3 14.1784332806 8.6451492236 8.8887233419
497 3 3.9893801623 0.0362638868 8.9421615321
498 3 3.8798823334 8.5856197130 8.7887614402
499 3 9.0538398040 8.8967749370 8.9606542456
500 3 14.0519775481 -0.0276656698 9.0216687707
501 3 8.9657483222 0.0164275135 9.1860118582
502 3 1.3015889256 7.0245735255 8.9940384910
503 3 11.6695928597 7.7212744348 8.1643449841
504 3 7.1965327418 7.5664325213 8.2800369768
505 3 1.2285132096 15.3787324541 8.8379889264
506 3 11.4059047506 15.5062600419 9.1096380669
507 3 5.9947836414 15.3334162917 8.9933564530
508 3 14.2833053621 11.9784332579 8.2100756557
509 3 9.4828538077 12.1425164188 8.2698717814
510 3 4.2724461647 12.1367941682 8.0535044332
511 3 14.2275218385 3.3577586865 8.1033372071
512 3 9.3117552442 3.4216683745 7.9065248708
513 3 4.3685680240 3.4543542534 8.2310159140
514 3 4.4184999712 5.0470532053 8.1186451218
515 3 14.4179979680 5.0068306374 8.3101185561
516 3 9.5658319369 5.0755497358 8.1589741029
517 3 3.7076364823 14.5299663827 8.7949538493
518 3 14.1856163861 13.8141286961 8.4703582890
519 3 8.6658483515 14.4835125275 9.1659627008
520 3 1.6443555525 4.2419840869 9.1680293707
521 3 11.2140657387 3.9614398092 9.0308160752
522 3 6.4857820236 4.1253206060 8.9739761644
523 3 1.3349594539 12.6905728003 8.8152729803
524 3 11.5910007721 12.7168778223 9.0259698260
525 3 6.5405932991 12.7776104113 9.0688677091
526 3 1.9442563419 9.2412623437 8.0443831530
527 3 12.0405439377 9.5004402502 8.1533335600
528 3 6.6446377250 9.2451852291 8.2159183723
529 3 1.7169089942 0.7590663181 7.8987944782
530 3 11.7471384002 0.5113005900 8.0245416998
531 3 6.7164019461 0.5985988449 8.2635972218
532 3 2.9837745531 6.6882326042 5.0861018546
533 3 12.4034221903 7.6816626701 5.9447783350
534 3 8.2726684826 6.9122563099 5.1602943714
535 3 3.2433174175 15.3504441923 4.8876343665
536 3 12.1890029915 16.2691553639 5.7363165417
537 3 7.4989098915 16.4752500401 5.9301891015
ITEM: TIMESTEP
1
ITEM: NUMBER OF ATOMS
537
ITEM: BOX BOUNDS pp pp pp
0 14.841000
0 17.165000
0 17.836000
ITEM: ATOMS id type x y z
1 1 1.7992567830 11.7339251531 11.6892356445
2 1 14.3132811910 9.9235498244 11.8483909291
3 1 11.9998721957 11.5125723140 11.8315236682
4 1 9.4371223887 9.9697947337 11.8065903000
5 1 6.8619345541 11.9753181758 12.2086796435
6 1 4.4507683843 10.0834880909 11.7256506752
7 1 2.0576454409 2.9323612446 11.9830545276
8 1 14.6041108429 1.2866421661 12.1736087407
9 1 11.9177784168 2.5349287414 11.9332094241
10 1 9.3693955993 1.1972773310 11.8515407817
11 1 6.9116968586 2.6260213711 11.9058916554
12 1 4.4524618499 1.2016035548 11.9421625665
13 1 1.9634403818 5.6905640683 11.9015778009
14 1 4.3253861446 7.1345412862 11.8595502226
15 1 11.7671892667 5.4470048428 11.9205445529
16 1 14.2333349027 7.1047042226 12.0080682510
17 1 6.8687925407 5.5317980796 11.9185611362
18 1 9.2701270568 6.9498985196 11.9280367322
19 1 4.8326580907 7.1789978929 7.0094976603
20 1 2.2946885079 5.7194819978 7.1267434937
21 1 14.6192028784 7.1071859352 7.0625231440
22 1 12.2219039753 5.5185754703 7.0316456579
23 1 9.6809470401 7.0789017732 6.9866039524
24 1 7.3313829087 5.6339483372 7.0226733533
25 1 4.5336348860 15.7762288552 6.9138344229
26 1 2.0780571027 14.2278163539 6.8840256081
27 1 14.4733519491 15.6956602139 6.9850228246
28 1 12.0545730894 14.3629330884 7.0201122082
29 1 9.5734512058 15.6499414627 7.2335684927
30 1 7.0728844605 14.3602312688 7.0551602607
31 1 14.5551718825 9.9133883529 6.8616451848
32 1 2.1528951939 11.3993349021 6.9784100525
33 1 9.6882051865 9.9799142413 7.0272668056
34 1 12.1439268945 11.4389188520 7.0607463266
35 1 7.2716963513 11.4569036893 6.9309034133
36 1 4.7401180479 10.0595164718 6.8648863245
37 1 14.5218386838 1.3873440780 6.9968697151
38 1 2.0937711940 2.9090455679 7.1022682379
39 1 9.6579402883 1.2717282654 7.1121666763
40 1 12.0127428908 2.7566627377 7.0010490131
41 1 4.5645854666 1.4089969800 7.0461522201
42 1 7.1577018452 2.7200386828 7.0868606708
43 2 2.6312043394 13.3063491844 12.6704499689
44 2 11.9080508733 15.4916653026 10.9279181500
45 2 7.6405691598 13.1442580374 13.2193025960
46 2 15.6419301537 17.1682808087 13.3312190118
47 2 10.3845637379 -0.3591265535 13.4536210997
48 2 5.3195488908 17.1002870106 13.2291926258
49 2 2.5184542425 11.5710981743 15.3687204557
50 2 16.4685243449 15.1319857659 15.5515158777
51 2 10.9696429334 4.6461957738 15.4407953286
52 2 12.5505633138 10.1460484353 15.6674065999
53 2 4.1705071645 17.4692354081 18.2000383109
54 2 0.1068780490 2.3457608344 16.1948964032
55 2 10.3164319372 8.7155753116 1.5412654422
56 2 10.3570223800 8.2085516292 15.3990476363
57 2 9.5292299127 10.9628213816 18.3240794209
58 2 11.7281164457 1.9200877691 15.6199005863
59 2 5.6883055292 11.9442039979 15.7649057325
60 2 14.4442851411 0.1131580519 18.1794616546
61 2 8.6250454748 0.2682172290 3.4202063702
62 2 14.6116836137 12.0241757170 16.1377676254
63 2 8.3931396558 17.1126043879 16.1944042819
64 2 5.9110053424 15.5202574808 11.1877239427
65 2 4.3367615170 3.1835896888 19.0441421957
66 2 14.3261925944 14.0157668176 0.3199449461
67 2 0.8440481394 14.5301904428 2.9634784663
68 2 12.7300027939 14.4978986910 3.2856367124
69 2 11.0278699467 6.1148487038 0.0703126636
70 2 7.5082378642 8.4417847697 15.9950919061
71 2 8.7106527946 14.5880302623 3.8462236734
72 2 5.2639005198 15.7283393963 3.5255905175
73 2 5.3013769377 8.8226603549 3.2956022973
74 2 13.3543489061 5.9892592514 3.4969124255
75 2 6.9405499562 17.3469936544 18.6632421628
76 2 5.6258789792 1.7486624875 15.8844644482
77 2 9.9997100287 14.8897297711 -0.0475642774
78 2 2.3548462021 5.2150818538 0.5707348175
79 2 3.4875537565 14.5637230176 1.5959448646
80 2 8.7110247693 2.9267170173 15.5674752933
81 2 5.8997039357 11.9549166003 1.4691799489
82 2 2.4628924263 10.8856096876 0.3051742211
83 2 2.6659543905 2.8650323200 15.6814241487
84 2 13.2526006171 8.7042041261 0.4228918133
85 2 12.9124529756 1.9705263956 2.3907926333
86 2 13.3915081531 15.1196655869 13.6856898722
87 2 5.1177084728 9.7481651566 17.3961571258
88 2 7.1729804938 8.8082665319 1.1051455598
89 2 13.1149581210 3.6645424132 17.8707558457
90 2 16.4588612827 15.2605959104 11.6603896292
91 2 8.7958829644 11.5862167771 15.4805048426
92 2 8.0797788134 11.3416031679 3.3834417552
93 2 5.6260677720 6.0782947339 2.6366361019
94 2 0.9113727489 11.5202722168 2.8021623037
95 2 6.8473223915 14.6792219584 15.2918316199
96 2 9.4186744955 6.7619314309 3.5144002533
97 2 5.2372637101 6.5275167313 -0.0725322388
98 2 -1.5912602875 6.8146858225 15.9960317283
99 2 3.2767875555 17.7186776187 2.9690484875
100 2 3.1603113863 5.2785896675 3.5585357816
101 2 3.6719736295 10.9668942308 3.2130376831
102 2 15.0137923404 8.5476277103 2.7073824508
103 2 11.9316903933 10.3915461361 3.2356843118
104 2 10.9787183440 -0.6622182887 2.0612011662
105 2 3.2622981426 8.8374476532 -2.1701590472
106 2 7.0260363844 3.5120180487 0.4294804982
107 2 7.5669139340 14.5431842598 19.2061844610
108 2 11.4953751259 12.6999894473 1.2806993084
109 2 16.0473859107 6.7505539861 15.9070235369
110 2 9.8508869926 1.6095349098 0.4201705711