-2254130.182 
-2254131.109 
-2254165.093 
-2254158.670 
-2254137.995 
-2254087.059 
-2254114.610 
-2254128.608 
-2254124.848 
-2254137.279 
-2254111.263 
-2254086.812 
-2254099.779 
-2254093.369 
-2254112.080 
-2254110.972 
-2254089.779 
-2254089.032 
-2254127.708 
-2254146.310 
