ITEM: TIMESTEP
0
ITEM: NUMBER OF ATOMS
133
ITEM: BOX BOUNDS pp pp pp
0 10.522986
0 10.522986
0 10.522986
ITEM: ATOMS id type x y z
1 4 6.6328643837 8.5282298275 4.3184456604
2 4 13.6013832935 8.0901732328 2.6716202518
3 4 22.9826092559 1.7128013167 7.5412883644
4 4 5.7516986909 -9.3569034134 -1.3930920237
5 4 10.8361695860 18.1106813237 -2.1008278828
6 4 1.1503663349 3.9188028054 -0.4806560052
7 4 -14.2794207861 1.4179883651 13.8975144173
8 4 6.3583491407 5.7380609202 2.4837123552
9 4 4.8994510943 4.2258756195 7.2219989786
10 4 -12.8475396814 -1.0215724104 1.2642796305
11 3 12.2198635133 6.0124884532 -4.0215280319
12 2 11.3462751177 4.9283099630 -5.4646977686
13 3 10.8182955948 4.1638443495 -5.8252340786
14 3 3.2419851400 3.2284528419 5.5332589562
15 2 2.8877861511 3.8429222072 6.2085301637
16 3 2.0653200262 4.1841181872 5.7756139860
17 3 8.4980594349 -6.1943768677 16.7795937207
18 2 8.2242082336 -7.0763001771 17.0588806258
19 3 8.3028318488 -8.5569989994 17.9872490556
20 3 1.2659041756 10.0080971058 4.3811550042
21 2 0.9845988359 9.3118430688 3.6939836219
22 3 2.1637838786 10.9814483971 1.7086032768
23 3 4.2401092618 30.1807573770 -1.9103709085
24 2 4.6608986384 30.4628269002 -1.0846304927
25 3 4.1380854343 30.0520750599 -0.4099420520
26 3 -6.2631216934 0.6024633911 6.5647797267
27 2 -5.8344724591 1.4719262441 6.9588869056
28 3 -5.3322610422 1.8896709679 6.2039159756
29 3 -1.0514070792 3.1947977564 -7.0639079428
30 2 -1.0396220910 1.9126932571 -5.8756580337
31 3 -1.6434046759 2.4582168664 -5.1764533399
32 3 9.0345048799 1.0399084797 4.3375697316
33 2 8.3787323941 -0.4587899771 3.8194851793
34 3 9.2100445610 -0.9141111427 3.5431204730
35 3 1.0253513502 2.3014524836 1.9103003229
36 2 1.3649906762 3.2717047867 1.8361527710
37 3 1.8917585268 3.5541229123 2.6108992659
38 3 -2.7719495944 -6.9326061413 2.3136153708
39 2 -3.7303798754 -7.1002921120 2.1058563628
40 3 -3.7388011509 -7.6148110897 1.2462870197
41 3 14.0642675505 -4.9362801439 3.5020952571
42 2 14.3313188312 -5.5166276398 2.7692707194
43 3 14.2934894623 -6.3869700014 3.2691521254
44 3 -1.4993702313 -0.8993648726 5.5554536957
45 2 -1.0390149424 -1.1123245850 6.3996046341
46 3 -0.2118877519 -0.6537193995 6.3264364682
47 3 -12.4901667817 -4.6452335912 -1.8205953709
48 2 -12.3301731308 -3.8469440834 -2.3391261077
49 3 -12.4479645826 -4.2750233646 -3.2126645439
50 3 -1.9031031418 27.3632819695 11.5736201263
51 2 -2.0673153768 27.8362408085 12.4367690943
52 3 -1.2429774255 27.6956228746 12.9084998913
53 3 5.4463023743 8.7429346175 -3.8062037573
54 2 6.2732009299 8.2012611762 -3.7400331940
55 3 6.8803442602 8.5257053757 -3.0994676167
56 3 18.7238042060 -19.4980513275 -0.5933456705
57 2 18.6542273038 -19.4542842446 0.3644594925
58 3 17.7704840244 -19.9457293167 0.5243870316
59 3 9.6176562330 16.5650928018 4.9826422713
60 2 9.1831663154 14.4506036827 2.8601515539
61 3 9.9502422254 14.8429123374 2.4377328556
62 3 7.4020796373 3.6497716832 -2.5241602561
63 2 6.6972888378 3.7837471316 -1.7962630871
64 3 7.2380198513 3.9662913253 -0.9956219509
65 3 14.8454320166 -0.2713550774 14.2165412136
66 2 15.4301100578 -0.3732490326 14.9571323734
67 3 14.9224422696 -0.5979126522 15.7738664637
68 3 11.1830031943 1.4071261251 15.6198862246
69 2 12.0366155909 0.9742881420 15.7982057649
70 3 12.6422050699 1.4679386578 15.1955618729
71 3 -10.8534103819 16.1535673183 0.3065885864
72 2 -9.9855701569 16.7156248562 0.5040472210
73 3 -9.9302119403 16.7170613340 1.5849709161
74 3 10.0975802716 -9.1477105466 9.3349736517
75 2 10.9287792440 -8.9982961353 9.8134072618
76 3 10.8759039476 -9.3119064213 10.7421179996
77 3 0.1803107767 -2.1352401740 0.7874813019
78 2 -0.0514340265 -1.3196079059 0.2617080652
79 3 0.2754323475 -0.5611424701 0.8434550717
80 3 -7.4131076249 11.9898531377 -8.0527344099
81 2 -7.4031890669 11.1540854216 -8.6569932393
82 3 -9.8519477896 9.8967271588 -7.5553109340
83 3 0.5077559707 4.4030537112 -3.6241824355
84 2 0.1377656213 4.0648404960 -2.7485923029
85 3 -0.6911448493 3.5582688100 -2.9737403061
86 3 5.1497905657 0.6165235872 -20.1166637891
87 2 6.0789553683 0.4295881322 -19.9877398260
88 3 5.7218762468 -1.0638714956 -19.2949695551
89 3 12.4106811147 -11.0757939573 8.8947589727
90 2 12.2430976970 -11.3592268123 8.0277031201
91 3 13.1286226561 -11.4949291690 7.6113795974
92 3 -4.6472091285 14.5956986658 4.9803341110
93 2 -4.5106382016 13.6624601956 5.3021461923
94 3 -3.7527983310 13.8149244761 5.9358590526
95 3 11.3530775389 5.8052721379 -6.6628832256
96 2 11.1287602058 6.4940464474 -7.4103739325
97 3 10.9732400586 7.3739118142 -6.9996176841
98 3 -2.8349520928 18.6267637125 29.9560127539
99 2 -3.0539523830 19.3771073143 30.5503265571
100 3 -4.0292371972 19.4261468632 30.6426646338
101 3 24.4077542455 11.9511276698 21.1851887639
102 2 24.4907242946 12.4538737019 20.2822122391
103 3 24.8081338678 13.4058481845 20.4148492016
104 3 -5.8963995354 6.6706609880 -16.2218771352
105 2 -6.8755136073 7.2500134550 -16.3800598232
106 3 -7.5510605571 6.7771665453 -15.7935425941
107 2 0.4002324714 11.1614801024 -8.6586920010
108 3 -0.5252497424 11.4035024792 -8.5492250522
109 2 -2.2015440754 11.7560762456 8.1218962883
110 3 -1.9841694910 10.8936635227 7.6465036694
111 2 -8.5091951270 6.5722468767 7.2013809070
112 3 -7.4795577261 6.3824224115 7.4472141033
113 2 19.2176103059 4.9167223095 10.3619531628
114 3 19.3912039491 4.1961831970 11.0314779772
115 2 14.4221970917 9.4361179576 6.6853136158
116 3 14.0596491463 8.7863477189 6.0301119264
117 2 16.3064722194 6.1362000985 4.8940761509
118 3 16.8786971452 6.3463533971 5.6347533089
119 2 -1.8420757441 6.0532776016 4.9974444277
120 3 -1.9828340097 5.4273308130 4.2686597820
121 2 3.3678700029 2.6368674088 14.4212739152
122 3 4.2561840526 2.2643443013 14.4208678174
123 2 5.7774636963 8.5052086676 -8.3926220931
124 3 5.7054307790 7.8348410111 -9.1653889978
125 1 -6.3192865048 16.6845674729 -0.4501409975
126 2 -4.8292940038 17.2158815589 0.3329925833
127 3 -4.0182566103 16.8578908096 0.0907115232
128 2 -7.5000117535 17.7780846444 0.2532668642
129 3 -8.4486504387 17.3707988444 0.1522621211
130 2 -6.7896243954 15.0142522565 -0.1829016455
131 3 -6.9701259216 14.9914891677 0.7524861479
132 2 -6.1389238483 16.7319211506 -2.2334313583
133 3 -5.6701085917 17.4515626296 -2.6313481580
ITEM: TIMESTEP
1
ITEM: NUMBER OF ATOMS
133
ITEM: BOX BOUNDS pp pp pp
0 10.791650
0 10.791650
0 10.791650
ITEM: ATOMS id type x y z
1 4 6.7963131727 8.7532461905 4.4209144433
2 4 13.9260665013 8.3497741006 2.7574686056
3 4 23.5156501458 2.0457287557 7.6851123631
4 4 5.9548299490 -9.6653278312 -1.4632407254
5 4 11.0800414638 18.8251605643 -2.1244239329
6 4 1.2063850303 4.0806829284 -0.5187378610
7 4 -14.7247782615 1.4204771198 14.3898750088
8 4 6.1391242634 5.9096227869 2.5074358611
9 4 5.0055715522 4.4149460820 7.3048261461
10 4 -13.2056629769 -1.1031013756 1.3902876927
11 3 12.3798318782 6.4234841443 -4.2306304462
12 2 11.6981604460 5.2038621559 -5.3858910598
13 3 11.7115634456 4.5994635661 -6.1345664974
14 3 3.1872862268 3.2691596147 5.3786172096
15 2 2.9494525319 3.7743926467 6.2370365836
16 3 2.3408368319 4.4951860365 5.7905059392
17 3 8.8270898960 -6.8643708861 17.1444797951
18 2 8.4256315432 -7.7093506140 17.4237132633
19 3 8.3661927633 -9.0521872758 18.6237451073
20 3 1.1466067679 10.3216461201 4.4150321173
21 2 1.0212606749 9.6227964925 3.7633873425
22 3 2.3318936224 11.4625208352 1.9625540647
23 3 4.1584192033 31.1130825173 -2.3874389139
24 2 4.5680785701 31.2204705401 -1.4759948117
25 3 4.0191307212 30.7397624035 -0.7936808398
26 3 -6.3816996595 0.5590204822 6.8807626195
27 2 -6.1043926064 1.4851703241 7.1852270022
28 3 -5.5246845619 1.8309635855 6.5087222684
29 3 -1.1376604745 3.0556047432 -6.9271441607
30 2 -0.9966352110 1.7573649552 -5.9413442847
31 3 -1.5485610977 2.0982884259 -5.0770875365
32 3 9.3387683721 0.8928680028 4.5857952393
33 2 8.5082264738 -0.2554851545 3.8316621339
34 3 9.3974682755 -0.4764768271 3.5684380329
35 3 1.1269403132 2.5163887045 1.9204657362
36 2 1.2464571328 3.4912535869 1.7372083161
37 3 2.0785333792 3.5827454127 2.2191521313
38 3 -3.0478456007 -7.2710054071 1.9529590599
39 2 -4.0261418400 -7.2230644582 1.9163485476
40 3 -4.1376972848 -7.4567953532 1.0168831160
41 3 14.4515343832 -5.1636686701 3.4519517761
42 2 14.7480951775 -5.7850907739 2.7732197808
43 3 14.6237467008 -6.6928928006 3.0898749775
44 3 -1.8456251020 -1.1873832339 5.8466547582
45 2 -1.4735430717 -1.1317835415 6.7255239144
46 3 -0.5154563402 -0.9796934578 6.5466036693
47 3 -12.6552497813 -4.7568541070 -1.6178089022
48 2 -12.6710337787 -4.1607646891 -2.4073251361
49 3 -13.2653555289 -4.4892445625 -3.0664705641
50 3 -1.9620638474 28.2180622049 11.9592094587
51 2 -2.1010777417 28.5912786476 12.8589304103
52 3 -1.2506026683 28.4763353183 13.2831924147
53 3 5.7000906027 9.1153086687 -3.6182971892
54 2 6.4682372385 8.4787152636 -3.7787976526
55 3 7.1041708041 8.7854716887 -3.0684847504
56 3 19.2276087717 -20.4070586979 -0.3272878689
57 2 19.1238565621 -20.0039247116 0.5959560166
58 3 18.2664840505 -20.3230004238 0.9844638919
59 3 9.9227460957 16.6304112787 5.3951737840
60 2 9.3375807821 14.5799444558 3.2484157140
61 3 10.1818699881 14.8814179378 2.8349722169
62 3 7.5227253872 3.8704330789 -2.5504574356
63 2 6.7666252609 4.0618955837 -1.9599146072
64 3 7.1971739290 4.3334312852 -1.0942252233
65 3 15.3717242181 0.1868020327 14.3479806644
66 2 15.9336400319 -0.0492566938 15.1406671072
67 3 15.2652091653 -0.0439695098 15.9133455039
68 3 11.4526780660 1.4276628897 15.9959590029
69 2 12.3638750652 1.1130275372 16.1935662468
70 3 13.0003425093 1.6241243870 15.6352049427
71 3 -11.3821085693 16.9553726245 -0.0353284269
72 2 -10.4375831862 17.2427583968 0.2447545094
73 3 -10.3611607302 17.0451293616 1.2820754014
74 3 10.5423559663 -9.3439305276 9.5396543880
75 2 11.3050944367 -8.9784580425 9.9922525080
76 3 11.1825934057 -9.4116644425 10.9305929245
77 3 0.3292528489 -2.3706800725 0.6593469412
78 2 -0.0158578713 -1.5828176485 0.2476868201
79 3 0.2692632004 -0.7603510021 0.7438992742
80 3 -7.3743561019 12.4671195949 -7.9615836878
81 2 -7.5187625400 11.7277038338 -8.8299893562
82 3 -10.1943785990 10.2412016999 -7.7223224342
83 3 0.3472620213 4.4119517015 -3.9975565550
84 2 0.2403020256 4.0044207315 -3.0922808184
85 3 -0.6247972357 3.6472963289 -3.1242041040
86 3 5.3099753490 0.6402007455 -20.1468682236
87 2 6.1891041242 0.2024091456 -20.0857248443
88 3 5.8813721297 -1.0777327162 -19.8240499756
89 3 12.5362360365 -10.9924358446 9.1745964681
90 2 12.2907516201 -11.4691150941 8.3238256973
91 3 13.1190830973 -11.6279049820 7.7568244323
92 3 -4.7627305812 14.8306252333 5.0918928429
93 2 -4.5474575863 13.8193390242 5.1403019479
94 3 -3.6842774220 13.7255015100 5.5960913607
95 3 11.6437211258 6.3047751202 -6.7677897051
96 2 11.6249648573 6.8991362013 -7.6027847741
97 3 11.1575585354 7.6623237683 -7.2301741384
98 3 -2.8385152059 19.1200220414 30.9009525262
99 2 -3.1826063260 19.8786104047 31.4096412909
100 3 -4.1345113462 19.6132970914 31.4753637109
101 3 25.1989876003 12.4768034531 21.7383672613
102 2 25.1351657769 12.9846310054 20.8530399527
103 3 25.4658017464 13.9008550369 21.1248162163
104 3 -6.1142110367 6.7268898505 -16.6228848505
105 2 -6.9998932138 7.1967432158 -16.9128901756
106 3 -7.6190039613 6.9536200824 -16.2491742484
107 2 0.4410035084 11.4999539978 -8.9297066368
108 3 -0.4478972404 11.8217941861 -8.6485303839
109 2 -2.5768517541 11.7718291622 8.4323936473
110 3 -2.3903577305 11.0209802363 7.8479078214
111 2 -8.8923615818 7.1245538570 7.2122755532
112 3 -8.1867842942 6.7244836784 7.7593432384
113 2 19.6376769347 5.2556716789 10.5936299262
114 3 19.8850237777 4.4233345660 10.9707974964
115 2 14.7613752209 9.7767321675 6.8072229917
116 3 14.4133379183 9.1055801394 6.1751948297
117 2 16.6426836370 5.9307093173 4.9410221547
118 3 17.3549829561 6.2378364592 5.5221721776
119 2 -1.8278213047 6.1310091911 5.3439964324
120 3 -2.2200358475 5.8410738721 4.5056474361
121 2 3.5770460040 2.5508553019 14.6953309856
122 3 4.5254174676 2.5332370530 14.9417324526
123 2 5.9028127306 8.6756295424 -8.5738230453
124 3 5.9689472205 8.0525850293 -9.3387180137
125 1 -6.3800288919 17.3189740086 -0.4917769383
126 2 -4.7448659918 17.4533564703 0.0717741051
127 3 -3.8427070211 16.9771735384 -0.1055219458
128 2 -7.4223628466 18.4967806162 0.3409296016
129 3 -8.3081197632 18.2539728955 0.1700696730
130 2 -6.9906495772 15.7007174770 -0.0643154941
131 3 -7.2277512176 15.5799383213 0.8587495921
132 2 -6.4043068766 17.4530230331 -2.2487910176
133 3 -6.0092421427 18.2966647601 -2.6186789872
ITEM: TIMESTEP
2
ITEM: NUMBER OF ATOMS
133
ITEM: BOX BOUNDS pp pp pp
0 10.800200
0 10.800200
0 10.800200
ITEM: ATOMS id type x y z
1 4 6.8018892945 8.6618572872 4.4188758652
2 4 14.0948999300 8.3659461578 2.5894557407
3 4 23.5898312246 1.9907116927 7.5734197469
4 4 5.6548775518 -9.6954472838 -1.4088087768
5 4 10.6584732615 19.0835234881 -2.1295469828
6 4 1.1563205557 4.2229424917 -0.6129930653
7 4 -14.7307783852 1.3941608883 14.2958734995
8 4 6.1186382453 5.6826546852 2.5600597589
9 4 4.9890933201 4.7176162156 7.2252679644
10 4 -13.3272297961 -1.0480756379 1.1956357679
11 3 12.1325904370 6.6003702529 -4.2092942391
12 2 11.5382376564 5.4559925728 -5.3081926790
13 3 11.2172088226 4.6199818083 -5.6851798760
14 3 3.3378230012 3.2821865132 5.3491801181
15 2 3.0600121566 3.9030819645 6.1551899169
16 3 2.3321577717 4.5388644247 5.8974129673
17 3 8.7293047834 -6.9529987695 17.3029993634
18 2 8.3142335226 -7.7597931501 17.6436431606
19 3 8.3466311307 -9.3560961244 18.7266653819
20 3 1.2634365435 10.4278496362 4.3944980244
21 2 1.0284179488 9.7979647279 3.7364130956
22 3 2.3839574878 11.5069680848 1.7113290469
23 3 4.3813483037 31.3075947311 -2.2925438684
24 2 4.8080646557 31.4856140464 -1.4440343692
25 3 4.4228185827 30.8772335670 -0.7560393850
26 3 -6.2236091085 0.5350645826 6.9629516357
27 2 -6.0617298857 1.4872672049 7.2608951551
28 3 -5.4722822578 1.8920447435 6.5370386557
29 3 -1.3580089812 2.9178075595 -7.0219223748
30 2 -1.0068352718 1.6032334191 -5.9225629269
31 3 -1.5224417121 1.9505632959 -5.1476829756
32 3 9.3731618596 0.6899291085 4.6392493512
33 2 8.5653216334 -0.6536889519 4.1059672662
34 3 9.3449873713 -1.1625390848 3.8030077564
35 3 1.2533126206 2.5262644966 1.7753446604
36 2 1.0338154522 3.4903970411 1.7454869942
37 3 1.7359675338 4.0566185180 2.1707420387
38 3 -3.1061050645 -6.9470625239 2.3071099327
39 2 -3.9847892368 -7.1291542944 1.8834617841
40 3 -3.8002439419 -7.6734859152 1.0550550295
41 3 14.1992863156 -5.3609815424 3.4829512673
42 2 14.3505690510 -5.9907949557 2.7338889196
43 3 14.3405830417 -6.9087408519 3.2856573025
44 3 -1.7425871253 -1.0854961833 5.8646005451
45 2 -1.5440930081 -1.0640147532 6.8283906916
46 3 -0.7053845152 -0.5723785289 6.8015712327
47 3 -12.8394789592 -4.4501289603 -1.5203654616
48 2 -12.6670709850 -3.9095029286 -2.3585115148
49 3 -13.0998490715 -4.4778454405 -3.0549376790
50 3 -2.2490643982 28.0551403207 12.3777056533
51 2 -2.3285452970 28.6708638526 13.1347373529
52 3 -1.6350509679 28.4206061622 13.7908887807
53 3 5.4995493494 9.0911733862 -3.9843213065
54 2 6.3409500975 8.4750361092 -4.1148439477
55 3 7.0594453091 8.6415297094 -3.5323880310
56 3 18.9881595601 -20.2296440087 -0.3151669522
57 2 19.0849570161 -20.1627156554 0.6175283358
58 3 18.1790681828 -20.5836261161 0.9033727106
59 3 10.0162386198 16.7118871431 5.6914790294
60 2 9.3455529189 14.4845011020 3.1694661288
61 3 10.1123538957 14.4451916991 2.5622764386
62 3 7.6311882080 3.5255099877 -2.7710115061
63 2 6.9225239546 3.8353633156 -2.0825431057
64 3 7.3299945690 4.5721537790 -1.5946592152
65 3 15.1877790182 0.2121006178 14.4500272911
66 2 15.7753444388 0.0020875492 15.1636365938
67 3 15.2010230729 -0.1539891313 15.9820543321
68 3 11.5784016683 1.4775679019 16.0491127951
69 2 12.4744324640 1.1059326637 16.1222358018
70 3 13.1389019508 1.6727531290 15.6092061605
71 3 -11.3306411672 16.7021517437 -0.0549147722
72 2 -10.4603399259 17.1322598271 -0.1474687976
73 3 -10.2657463801 17.2712602362 0.7570271956
74 3 10.4328117708 -9.3004486291 9.6443368864
75 2 11.3244284285 -9.0029513899 9.9934083185
76 3 11.4203305501 -9.3859696928 10.9554681657
77 3 0.2000926274 -2.1500112120 0.8715314566
78 2 -0.1986115289 -1.4476659013 0.2944370234
79 3 0.1230615401 -0.5954835931 0.6914287801
80 3 -7.5273910271 12.3200153168 -8.2286495414
81 2 -7.4465459116 11.7095073044 -9.0018731555
82 3 -10.1183260233 10.3177978491 -7.8334016090
83 3 0.4309080653 4.3816758210 -3.7196271805
84 2 0.3490930765 3.7106689013 -2.9691337553
85 3 -0.6021988683 3.4181235111 -2.9578557462
86 3 5.3001665940 0.7776611378 -20.0704485254
87 2 6.1742733573 0.3597947260 -20.1417781004
88 3 5.9555240974 -1.2324140031 -19.7418676101
89 3 12.0379148869 -10.7080042925 9.0209397539
90 2 12.0059612856 -11.1977407601 8.1932523710
91 3 12.9419390038 -11.4117960134 7.9668848643
92 3 -4.6575141783 14.9033970279 4.8827276920
93 2 -4.5026619912 13.8564941981 5.0682464865
94 3 -3.7774117203 13.9862016715 5.7574435937
95 3 11.8105595941 6.4658128028 -6.9308611667
96 2 11.7127968885 7.1054595045 -7.6739201491
97 3 11.2287580761 7.8867793691 -7.3439668672
98 3 -3.0008055266 18.9989749364 30.8179625844
99 2 -3.1846683706 19.8566307906 31.2676841980
100 3 -4.1365045656 20.0140177273 31.2825367837
101 3 25.2166110996 12.9443833006 21.7514091444
102 2 25.4052336292 13.3249051269 20.9078373894
103 3 25.3750294121 14.3105150793 21.1010374795
104 3 -6.1092068990 6.4164936680 -16.7219226550
105 2 -6.9399583434 7.0348118957 -16.9160015479
106 3 -7.5276356854 7.0852253821 -16.1158252005
107 2 0.4934872706 11.4760970785 -9.3610032811
108 3 -0.3412282458 11.9386580376 -9.2223682933
109 2 -2.7670458471 11.6909106694 8.6450355481
110 3 -2.7541492705 10.7875752596 8.2757495145
111 2 -9.0330195651 7.3782114546 7.0857217990
112 3 -8.3911240778 6.9108666864 7.7579043074
113 2 19.3280826038 5.5918826438 10.8219714095
114 3 19.3999138213 4.6754884777 11.1801310243
115 2 14.7419936303 9.7929358264 6.8247888095
116 3 14.0566868212 9.1908503505 6.4381016672
117 2 16.7775895551 5.5600348468 4.9879799322
118 3 17.6575873230 5.9008161883 5.2409443344
119 2 -1.7992478672 5.9528940978 5.6182377944
120 3 -1.7745643714 5.3716775437 4.8354647465
121 2 3.6006070913 2.5966711280 14.7698875649
122 3 4.5288448095 2.4499481339 14.9819050255
123 2 5.8447378044 8.5494693560 -8.6306477704
124 3 5.9800396901 7.9886549992 -9.4576421987
125 1 -6.3115816696 17.3040309710 -0.5828819528
126 2 -4.7123242428 17.4959907366 0.1848780854
127 3 -3.8798548736 16.9557620796 -0.0243815060
128 2 -7.1280389849 18.6804361739 0.2270695981
129 3 -8.1400100362 18.7310633079 0.1148823211
130 2 -7.3409786752 15.9096567353 -0.1609741212
131 3 -7.4005847200 16.0428642075 0.8367599121
132 2 -6.4464271453 17.3785965433 -2.3460143921
133 3 -6.0724472060 18.1093345868 -2.8320134198
ITEM: TIMESTEP
3
ITEM: NUMBER OF ATOMS
133
ITEM: BOX BOUNDS pp pp pp
0 10.800068
0 10.800068
0 10.800068
ITEM: ATOMS id type x y z
1 4 6.7728896083 8.6148863030 4.3984595014
2 4 14.1343187675 8.4293556475 2.5631561730
3 4 23.9883220463 1.9616923155 7.4076505439
4 4 5.7139504282 -9.3756232403 -1.4168932923
5 4 10.4498480578 19.3857588427 -2.1015321661
6 4 1.1395297326 4.2584988086 -0.8292935500
7 4 -14.6377658012 1.3627298365 14.2402426421
8 4 6.1491926191 5.8321735336 2.6022872884
9 4 5.1366942499 4.7978766622 7.0704382970
10 4 -13.4484019138 -1.2129631631 1.1337764245
11 3 12.2055331416 6.7730827947 -4.0971873114
12 2 11.6139476717 5.5222361306 -5.2911814486
13 3 11.6320223452 4.7428914266 -5.9088912378
14 3 3.1146580371 3.8532763445 5.3863128087
15 2 2.9663351148 4.2366273739 6.2195109894
16 3 2.1430684998 4.7574626268 5.9764350003
17 3 8.6461587468 -6.8507622910 17.2796739311
18 2 8.7777004426 -7.7416011358 17.6890658085
19 3 8.3568542991 -9.2673243269 18.7435776754
20 3 1.4521871710 10.4532390454 3.9703853423
21 2 1.1771039925 9.8330967109 3.3299590291
22 3 2.1993443064 11.5897196275 1.6172620503
23 3 4.5093026826 31.2697146860 -2.3016325895
24 2 4.9765626762 31.3565803418 -1.3722527273
25 3 4.3183603464 30.8847107419 -0.7547436725
26 3 -6.2932638884 0.5892910161 6.8664484510
27 2 -6.0767332223 1.5774611667 7.0319785856
28 3 -5.4931583580 1.9356905500 6.3581772010
29 3 -1.3939144153 2.8921123961 -7.2111378938
30 2 -1.2610266945 1.6114974785 -5.9980401259
31 3 -1.6763698738 1.9815706628 -5.2049784795
32 3 9.2259369005 0.6489362875 4.6350002482
33 2 8.6611772097 -0.8129409415 4.3317753640
34 3 9.4589585376 -1.2508132162 3.9750511970
35 3 1.0430559499 2.7184843070 1.6478095787
36 2 0.9123442643 3.6197302388 1.8299232021
37 3 1.8130548643 4.0161152946 2.0620837412
38 3 -2.6713226287 -7.2193196740 2.4379429297
39 2 -3.6118876565 -7.2333841424 2.0769579381
40 3 -3.4848116249 -7.9173178626 1.4189527243
41 3 13.8005964591 -5.2145434704 3.2683751272
42 2 13.9153101367 -5.9592078398 2.5928144498
43 3 14.1817067979 -6.8478965852 3.0655828671
44 3 -1.7081269010 -1.1000331425 5.9014696780
45 2 -1.2935683089 -1.0608071708 6.8430833672
46 3 -0.6522326183 -0.3331419191 6.8296685839
47 3 -12.8630146393 -4.4311745688 -1.4581991129
48 2 -13.0084284464 -3.8869949986 -2.2943156734
49 3 -13.1908866143 -4.5071946386 -3.0084340965
50 3 -2.3366524668 28.3900685036 12.2376260778
51 2 -2.4780614889 28.7271488387 13.2678014415
52 3 -1.5998221524 28.7084060122 13.6753751293
53 3 5.0910861894 9.0326720175 -3.9140715573
54 2 5.9737432117 8.4040123339 -4.1843833797
55 3 6.6554401917 8.6260987573 -3.4775959372
56 3 19.1537743781 -20.1694309786 -0.3424493001
57 2 19.0348892952 -20.1612722232 0.6339743167
58 3 18.0811802533 -20.5881781053 0.8649007315
59 3 9.8038166571 16.4396969467 5.6021316932
60 2 9.4584207324 14.5818580764 3.2170757570
61 3 10.3103854222 14.5112101534 2.7205314727
62 3 7.3761472097 3.6395998973 -2.4799107004
63 2 6.5720160603 3.7326379701 -1.9249867045
64 3 6.7627901248 4.4734302537 -1.3236772374
65 3 14.9884585836 0.1750280077 15.0202212443
66 2 15.6107922142 -0.5385693050 15.3357706419
67 3 15.1805437883 -0.8016891512 16.2044117486
68 3 11.7656010077 1.4771306068 15.7846412449
69 2 12.6465285019 1.1304887441 15.9816193952
70 3 13.2286380717 1.7303541307 15.4431080881
71 3 -11.5363820770 17.0873926792 0.0436414280
72 2 -10.5687935663 17.2463195259 -0.1630721987
73 3 -10.1845416947 17.0718753754 0.7778639458
74 3 10.5215442607 -8.8833432973 9.4471127996
75 2 11.3906224454 -9.0418264355 9.7675564921
76 3 11.2488790290 -9.4742694350 10.6771354388
77 3 -0.0610277325 -2.3792466108 0.5160582163
78 2 -0.3352532744 -1.5150437605 0.2173711394
79 3 0.0533195817 -0.8138631261 0.7788939737
80 3 -7.4206231380 12.2763623989 -8.3625101328
81 2 -7.6360333834 11.6521912758 -9.0766270148
82 3 -9.9517313622 10.5093498853 -8.1830194746
83 3 0.4950371184 4.4344952556 -3.7647455223
84 2 0.2683327883 3.7028117742 -3.0979539804
85 3 -0.6637855302 3.3153060606 -3.3750656193
86 3 5.2107993296 0.5431725582 -20.3220984895
87 2 6.1128763776 0.1913705604 -20.3767632491
88 3 5.8947451161 -1.1335849980 -19.7408376465
89 3 11.7035782396 -10.3217230903 8.8013638840
90 2 11.8680949118 -11.0538842642 8.1032019411
91 3 12.7652687267 -11.4054876922 8.2861065970
92 3 -4.4860975828 14.6361670998 5.0174935610
93 2 -4.3796208481 13.6443582505 5.2972294784
94 3 -3.6889856981 13.6252856269 5.9343093084
95 3 11.6156930206 6.8043559592 -6.8792593397
96 2 11.6786666920 7.2041483981 -7.7843142316
97 3 11.4740595883 8.1374932238 -7.5184702269
98 3 -3.2400574754 19.1509095901 30.6689711858
99 2 -3.2918043688 19.9697193687 31.2076937787
100 3 -4.2975413977 20.0990010249 31.2732770416
101 3 25.0359836415 12.8557702519 21.5818612406
102 2 25.4694392005 13.3820671109 20.8919486899
103 3 25.4132240851 14.3203764101 21.0891230955
104 3 -6.0361369783 6.4116990087 -16.9312166286
105 2 -6.8386724086 7.0320233024 -17.2437177381
106 3 -7.4552696935 6.9154288493 -16.4740730052
107 2 0.4294159431 11.5484633529 -9.3404688452
108 3 -0.4809859938 11.8752404812 -9.1742957968
109 2 -2.8426345897 11.9037206946 8.6926274907
110 3 -2.9167486316 10.9567515362 8.4312041126
111 2 -8.9254926244 7.5865366022 7.1406770013
112 3 -8.0243724492 7.2621143449 7.5534363517
113 2 19.3160572921 5.9114085907 10.9026427055
114 3 18.9944174207 5.0977314632 11.3704022554
115 2 14.7318184554 9.8050344146 7.0561243441
116 3 13.9633727324 9.3881009681 6.6716569908
117 2 16.8427294557 5.5967631161 4.9649851549
118 3 17.3365946601 6.2918001618 5.4274053206
119 2 -1.9720721304 5.6938576783 5.7595507795
120 3 -2.5282116670 5.5965411587 4.9670282106
121 2 3.4754897806 2.6161102000 14.6214939821
122 3 4.3479886168 2.5816131258 15.0658839310
123 2 5.7307555577 8.7078321155 -8.7005508664
124 3 6.0455023249 8.1953770133 -9.4704553406
125 1 -6.5363153126 17.3706408621 -0.6285337493
126 2 -4.9797272044 17.3157228644 0.3837192478
127 3 -4.0401614748 17.3723070650 -0.0019814893
128 2 -7.3523721992 18.8772168631 -0.1327758930
129 3 -8.2626790511 18.9049637262 -0.3337498695
130 2 -7.4831644982 15.9449003168 -0.1491235498
131 3 -7.6729246421 15.8387567803 0.8276121325
132 2 -6.3203200350 17.2769247942 -2.3319145374
133 3 -5.6834290733 17.9529001676 -2.7530387588
ITEM: TIMESTEP
4
ITEM: NUMBER OF ATOMS
133
ITEM: BOX BOUNDS pp pp pp
0 10.903981
0 10.903981
0 10.903981
ITEM: ATOMS id type x y z
1 4 6.8617905333 8.5831212066 4.3989350956
2 4 14.2788641578 8.4855173999 2.5693014358
3 4 24.2113711996 1.9819600857 7.1859541228
4 4 5.7924058431 -9.1675261556 -1.5095139384
5 4 10.5050909768 19.5216714565 -2.0201475384
6 4 1.1496333903 4.2965466475 -0.9439840777
7 4 -14.8540824193 1.3747671347 14.4196153410
8 4 6.2152318929 5.5469529571 2.6124949551
9 4 5.2401944854 4.8506210145 7.0354872632
10 4 -13.4341457515 -1.5799720546 1.1632611362
11 3 12.4082145574 6.9538554978 -4.3369278178
12 2 11.6166003340 5.7390408887 -5.3516667155
13 3 11.5087784297 5.1408610121 -6.0781279850
14 3 3.1812254456 4.0310394422 5.2920310433
15 2 3.0241146241 4.3339088943 6.2114943769
16 3 2.3505053601 4.9995778109 6.0842764562
17 3 8.7836339772 -6.8890745203 17.8873541881
18 2 8.5346373240 -7.7772712106 18.1065103451
19 3 8.4510031952 -9.0046539971 18.9927188346
20 3 1.5967897171 10.6151648978 3.7248936769
21 2 1.4247558240 9.9772514867 3.0049621041
22 3 2.2564402007 11.9793583551 1.6411972699
23 3 4.5076393117 31.8356362443 -2.4543601789
24 2 4.9351589062 31.9548436783 -1.4617115384
25 3 4.3136934915 31.5021125708 -0.8889617254
26 3 -6.3219007808 0.6453665642 6.7962976340
27 2 -6.0867912872 1.5624135580 7.0981347192
28 3 -5.3983928249 1.9482297321 6.5232425540
29 3 -1.0474910496 3.1561378815 -6.9311562368
30 2 -1.2067122213 1.6706571707 -6.2180419668
31 3 -1.6646646786 2.0666420173 -5.4758911576
32 3 9.3710844587 0.6774692079 4.6061757631
33 2 8.6532822925 -0.6980387410 4.2644017026
34 3 9.3918886895 -1.2440294807 4.0008675926
35 3 0.7184966889 2.7336683171 1.2222200435
36 2 0.7309187951 3.7361697296 1.4445749589
37 3 1.5546796985 3.9628648368 1.9716514824
38 3 -2.6539667541 -6.9213717704 2.4398472600
39 2 -3.5471442316 -7.2833809242 2.3050827223
40 3 -3.4088532452 -7.7856529547 1.4597165875
41 3 13.9503525689 -5.3001833033 3.2706127029
42 2 13.9831518474 -5.9803671457 2.5756933509
43 3 14.3529574956 -6.8243167424 3.0116500576
44 3 -1.7084348549 -0.9155254222 6.0012054143
45 2 -1.2238999649 -1.1090771870 6.8422904522
46 3 -0.5182653699 -0.4365952561 6.8635880742
47 3 -13.5309920646 -4.4492972892 -1.5561653246
48 2 -13.3902955410 -3.8878437969 -2.3723461196
49 3 -13.5834158002 -4.4490941872 -3.1621690490
50 3 -2.4435339129 28.7650098154 12.4574476144
51 2 -2.4593771678 29.0771622122 13.4005985608
52 3 -1.5217413165 28.9473163609 13.6531674636
53 3 5.2820685913 8.8976454449 -3.8796584409
54 2 6.0231789628 8.2554228727 -3.9568495315
55 3 6.7414849351 8.6279893840 -3.4467468550
56 3 19.3650680211 -20.5264858301 -0.3067342186
57 2 19.1759546111 -20.3165350066 0.6568074489
58 3 18.1645744368 -20.7048343569 0.8221864179
59 3 9.9684302668 16.7082997983 5.7419616039
60 2 9.7773076590 15.0233691052 3.7309029941
61 3 10.5146009401 15.1802374092 3.0880896412
62 3 7.3001835156 3.5578941408 -2.6094355214
63 2 6.5753781878 3.9460674518 -2.0723282013
64 3 7.0109057005 4.5062047039 -1.4109560468
65 3 15.1676360955 -0.0553049965 14.7891124284
66 2 15.6007573812 -0.7390157448 15.3204772426
67 3 15.1249518070 -0.7551519960 16.2245721906
68 3 11.6903060873 1.5685448238 15.7602948680
69 2 12.6033740814 1.1908163559 15.8751170077
70 3 13.3070112676 1.7732994695 15.3806605052
71 3 -11.5895373175 17.2362113362 0.2600277274
72 2 -10.6246748045 17.6022557405 0.1430104257
73 3 -10.1123214851 17.4058502582 0.9899507691
74 3 10.5058770552 -9.3338964710 9.4884932796
75 2 11.3860800273 -9.1882486181 9.9540347297
76 3 11.3212483321 -9.6759686990 10.8509193226
77 3 0.0990665678 -2.2259631548 0.5539147483
78 2 -0.3642197640 -1.4176846521 0.1960453516
79 3 0.0404557488 -0.5677822251 0.6417948272
80 3 -7.4983549993 12.7497279909 -8.5605849660
81 2 -7.6557154254 11.9929014686 -9.2245187394
82 3 -10.0070799914 10.5178305170 -8.5862144795
83 3 0.6437348424 4.4580014000 -4.1055719028
84 2 0.5910558447 3.8228152322 -3.2858193480
85 3 -0.0922486781 3.1561161109 -3.6346766415
86 3 5.2772490492 0.5962499325 -20.6452326828
87 2 6.1595293543 0.4502827770 -20.2512231453
88 3 5.7665883613 -1.1261229116 -20.0070646508
89 3 12.1538155800 -10.5710958711 8.9479989021
90 2 12.1217380463 -11.1818878668 8.1719830184
91 3 13.0399647014 -11.4802695101 7.9182124714
92 3 -4.2820868924 14.6554457351 5.4469856959
93 2 -4.2089727710 13.6659641295 5.6337122412
94 3 -3.3447421430 13.7287410343 6.3015135653
95 3 11.6354516438 6.9050752783 -6.9678037690
96 2 11.6775933219 7.2007023776 -7.9152229234
97 3 11.7626482270 8.1776508779 -7.9344273240
98 3 -3.3786307518 19.2852292662 31.2287791052
99 2 -3.3690663088 20.1648700221 31.6329680947
100 3 -4.2568531366 20.5487976007 31.6356122428
101 3 25.1138534682 12.9092877299 21.8917882539
102 2 25.5035723410 13.4388578221 21.0934827793
103 3 25.5047178798 14.3470180359 21.4317957202
104 3 -5.9802917868 6.4037323350 -17.2728223853