ITEM: TIMESTEP
0
ITEM: NUMBER OF ATOMS
133
ITEM: BOX BOUNDS pp pp pp
0 10.809872
0 10.809872
0 10.809872
ITEM: ATOMS id type x y z
1 4 7.3615725634 7.1913202007 4.2305431567
2 4 15.1010603719 9.4157157140 2.0281365344
3 4 24.3050458284 1.9623688570 7.6947565689
4 4 6.2183196627 -9.2060197540 -1.2777014829
5 4 10.7256739563 19.1391518701 -2.3540383870
6 4 1.2821071893 5.1470764470 -0.9582324527
7 4 -14.6756203367 0.7841827077 14.6715003586
8 4 5.7670866577 5.5681185289 2.4962534871
9 4 5.1493178259 5.1029615650 6.8275930773
10 4 -12.2968596512 -1.7496038172 1.4140426193
11 3 12.3126822544 6.2146101382 -3.6180479660
12 2 11.4568443674 4.8586576274 -5.0232837674
13 3 11.1315971217 4.3079142159 -5.7630713854
14 3 3.4144587945 3.2983570862 5.1634399432
15 2 3.2427729168 3.7383006229 6.0516295662
16 3 2.4006781082 4.2685375931 5.9186180977
17 3 9.3476215376 -7.3065679997 17.5264891293
18 2 8.6302254815 -7.9406381660 17.7705084852
19 3 8.9432739655 -8.9323858713 18.8078872808
20 3 1.6291080139 10.5584855186 4.2192387888
21 2 1.8046120316 9.6704419792 3.7536831207
22 3 2.3020868504 11.2887188366 1.3439010157
23 3 5.7026227975 31.2393273921 -2.4081333828
24 2 5.5868757849 31.6359686085 -1.5290574027
25 3 4.9798283915 31.0171648788 -1.0567252597
26 3 -5.8395496872 0.7001356015 6.4696058245
27 2 -5.6389790259 1.3450286118 7.1924783932
28 3 -5.0384632625 1.9738247698 6.6767700874
29 3 -1.0030874356 2.7827952812 -7.2767477824
30 2 -1.4429905698 1.3166153379 -6.4612754418
31 3 -1.5645567193 1.5219649195 -5.5028364496
32 3 9.6075894312 0.3316655081 4.2420658581
33 2 9.6374938354 -1.3521082523 4.0447741746
34 3 10.5046754836 -1.6916153745 3.7530038328
35 3 1.1331214572 2.3372169243 0.6060928604
36 2 0.9325350054 3.2506509027 0.8369284214
37 3 1.6975512631 3.4863882861 1.4144991947
38 3 -3.5327067812 -7.0874117759 1.3218292227
39 2 -4.2805706531 -7.4480261730 1.8614451192
40 3 -4.3176356783 -8.4127020579 1.6280766793
41 3 13.3207316456 -5.6714117421 3.0679196334
42 2 13.9140762262 -6.2532993968 2.4944095438
43 3 14.0428028299 -7.1516150127 2.9536023754
44 3 -0.4408388843 -1.2985374934 5.5906512529
45 2 -0.1716320903 -0.9718500364 6.4760638584
46 3 0.7897991826 -0.8370487683 6.3322850794
47 3 -12.4289240526 -5.1481403436 -0.8183232806
48 2 -12.1310824372 -4.5586822004 -1.6555334775
49 3 -12.5293123725 -4.9411448706 -2.4484440099
50 3 -2.2849375391 27.0714082726 12.3619030107
51 2 -2.3431153461 27.4565816321 13.2977970769
52 3 -1.9851451078 26.6901711811 13.8127646989
53 3 7.9390499006 9.2712701414 -3.9969756610
54 2 7.6471479498 9.8678855203 -4.6776559342
55 3 8.5072900876 9.7391040331 -5.2668928201
56 3 19.7454935096 -20.6857073148 -0.1888422674
57 2 19.7248526545 -20.8260965142 0.7591522048
58 3 18.7677982547 -20.7257181220 0.9934302919
59 3 10.3105118864 17.0471938437 5.7024884853
60 2 10.2179757396 14.4421467907 3.3004761350
61 3 10.5396273417 14.3229035938 2.3793756377
62 3 7.7000885633 3.5749044806 -2.5986228852
63 2 7.0593162207 3.8110157350 -1.8428484687
64 3 7.6828908970 3.9927951077 -1.0785778213
65 3 14.9060609187 0.8026733836 14.9154805296
66 2 15.3748002731 -0.0578044429 15.1121075529
67 3 14.6253514954 -0.6663645820 15.3053193441
68 3 11.4731371762 1.6393708670 15.6246751317
69 2 12.3174365543 1.1997093185 15.8265210950
70 3 13.0203944247 1.6699779957 15.3273755694
71 3 -11.4704073749 17.1891954643 1.9586908831
72 2 -10.5202755921 17.3732376188 1.7307323303
73 3 -10.0557245201 17.3820771860 2.5845914062
74 3 10.7646830682 -10.2393541990 9.2238019301
75 2 11.7233475128 -10.2431278327 9.3966648646
76 3 11.7978514750 -10.6555838313 10.3339602347
77 3 0.9495301681 -3.2068215272 0.5474850723
78 2 1.1054957289 -2.5436500994 -0.1501772676
79 3 0.9837716447 -1.6619352276 0.2861664352
80 3 -7.4651297499 12.3006313552 -8.6339000415
81 2 -7.5389821184 11.7165442836 -9.4289356669
82 3 -9.2817965530 9.8652841976 -7.9797822953
83 3 0.5555563315 4.0393915546 -3.4255356507
84 2 0.6075960091 3.5847012352 -2.5467443341
85 3 -0.1546409711 3.0028769042 -2.5175203741
86 3 5.3926228389 0.6869218095 -20.4906721026
87 2 6.3455869881 0.5722527441 -20.3574435259
88 3 6.7477625067 -1.1498817679 -20.2626021758
89 3 12.6271714843 -11.1785954692 8.4092767303
90 2 13.2714780369 -11.5767435798 7.7570317385
91 3 13.9243802521 -11.9119684536 8.3754860657
92 3 -4.3489369913 14.5036392492 5.0022398689
93 2 -4.1980527963 13.5011869823 5.3650716407
94 3 -3.3379915237 13.5184811187 5.8215168941
95 3 12.0703964709 5.8322591895 -6.0101486548
96 2 12.5149514367 6.3336854342 -6.8036231085
97 3 12.7495609251 7.2295951594 -6.6282328983
98 3 -2.4670541379 18.6424317841 31.1458738738
99 2 -2.4138992741 19.6236593097 31.1732333212
100 3 -3.3332418517 19.9634181379 31.3005441968
101 3 25.0884050309 12.7968035462 21.2647598011
102 2 25.3415933359 13.3493640678 20.4940827342
103 3 25.4854924310 14.2945415739 20.8418107793
104 3 -6.5775314533 8.7204432468 -15.8164469560
105 2 -5.6645723001 7.5223056779 -18.0514028817
106 3 -6.3971765202 6.9310859214 -17.8911678676
107 2 0.9491058128 10.5265591991 -9.7714720861
108 3 0.1564017927 11.0489879587 -9.5226516899
109 2 -1.8052887703 11.9692083824 8.7849651317
110 3 -1.9603674033 11.1392216581 8.2855751998
111 2 -9.1769296989 6.7749389911 7.9828776955
112 3 -8.2259313903 6.9814924495 8.0496039878
113 2 19.5583860003 4.6568634782 11.0609503310
114 3 20.2920887601 4.0206820163 11.2020898470
115 2 15.6625083552 8.6704619091 6.6380597319
116 3 16.4460282312 8.7539929672 6.1007653936
117 2 17.5650538024 5.6096967368 5.2741048528
118 3 18.2474796761 5.3100228368 5.4421751793
119 2 -1.1446545014 6.9437613693 5.9295542407
120 3 -0.9089230086 7.6939396880 5.3388562651
121 2 3.7108606934 2.3994984872 14.5217230415
122 3 4.6323921351 2.6962843728 14.4649642869
123 2 7.0358367196 8.8066735676 -9.0660174936
124 3 6.5915553891 8.0958891030 -9.5958956637
125 1 -6.2602188846 17.4248191332 -0.5672851693
126 2 -4.6498434364 17.4062896162 0.1581244219
127 3 -3.9743699312 16.8399652512 -0.2337727626
128 2 -6.8005855482 19.0431784497 -0.0721240179
129 3 -7.7637276021 19.1196473381 -0.2084596852
130 2 -7.2784510748 16.0220894208 -0.1765052016
131 3 -7.4503535525 15.8127232769 0.7733388116
132 2 -6.4974798770 17.4632526619 -2.3202858518
133 3 -6.1849196793 18.2192548649 -2.8895350998
ITEM: TIMESTEP
1
ITEM: NUMBER OF ATOMS
133
ITEM: BOX BOUNDS pp pp pp
0 10.809872
0 10.809872
0 10.809872
ITEM: ATOMS id type x y z
1 4 7.2875823783 7.1938765779 4.1607681104
2 4 15.1047036773 9.3170279178 2.0008260632
3 4 24.2783847868 1.9432371619 7.6628233304
4 4 6.2025743150 -9.2253924100 -1.2886712855
5 4 10.7590829809 19.1415049663 -2.3966971883
6 4 1.2415400147 5.1973722266 -0.9445000727
7 4 -14.7426941257 0.7626541364 14.5997398346
8 4 5.6883339769 5.6033473334 2.5583807798
9 4 5.2927087783 5.0986318408 6.7829783480
10 4 -12.2645725403 -1.6837934169 1.4152199110
11 3 12.2896305033 6.3208368935 -3.6425955857
12 2 11.4438615832 4.8800869533 -5.0154315698
13 3 11.0765240595 4.2974254599 -5.6911756219
14 3 3.5066681821 3.3782739314 5.2425750254
15 2 3.2671617875 3.8108959157 6.1072480788
16 3 2.3449247333 4.1389130712 5.9667389094
17 3 9.2746159940 -7.2002567925 17.5895972090
18 2 8.6754832477 -7.9422057311 17.8501877005
19 3 8.8948478486 -8.9603210679 18.7740446304
20 3 1.7519013989 10.4865758338 4.3632459046
21 2 1.7467106409 9.6656178633 3.8379814810
22 3 2.3381826146 11.3700934632 1.2954964617
23 3 5.4674598585 31.2590742101 -2.4259879312
24 2 5.6060916537 31.6224641586 -1.5332518402
25 3 5.0969466733 31.0874352566 -0.8790099106
26 3 -5.7929759048 0.4752777429 6.4905743590
27 2 -5.6587431665 1.1752911745 7.1697971327
28 3 -5.3146793854 1.8902764175 6.5234867163
29 3 -0.9217356938 2.7749778986 -7.3708108994
30 2 -1.3360200383 1.2801253638 -6.5245006464
31 3 -1.4517624516 1.3327465631 -5.5611429061
32 3 9.6108421967 0.2415831652 4.1200791959
33 2 9.6410833427 -1.3537564620 4.0479603783
34 3 10.6072423176 -1.4426158416 3.9244616423
35 3 1.2231343304 2.4833658327 0.4654736790
36 2 0.9698746708 3.3142020836 0.8975772331
37 3 1.8177187277 3.5736998646 1.3522683254
38 3 -3.4746689946 -7.1106372384 1.2696863996
39 2 -4.2369100735 -7.4529910646 1.8347697894
40 3 -4.3836323413 -8.4076627809 1.6489422941
41 3 13.4255966571 -5.6702159479 2.9978775289
42 2 13.9066696776 -6.3005495542 2.3882132380
43 3 14.1518502752 -7.0906956394 3.0168276815
44 3 -0.4361570440 -0.9640426265 5.6039182322
45 2 -0.0236761008 -0.9831757651 6.5211939361
46 3 0.9329419012 -0.9851547034 6.3220095036
47 3 -12.4122191808 -5.2880569297 -0.8908504908
48 2 -12.1625492017 -4.6212046248 -1.6254084343
49 3 -12.5444377515 -4.9811809457 -2.4395129785
50 3 -2.2573627312 26.9851084957 12.3614066251
51 2 -2.3283198442 27.4499844653 13.2793697477
52 3 -1.9351150608 26.7525293278 13.8694417790
53 3 8.2718040916 9.4404623370 -3.9989568861
54 2 7.5751178572 9.7720376940 -4.6709888635
55 3 8.1609156486 9.4937681609 -5.3765302561
56 3 19.8109008815 -20.5951106892 -0.2678368484
57 2 19.7688324543 -20.8224241668 0.6992696011
58 3 18.8113054146 -20.8142617900 0.9070932816
59 3 10.1954986233 16.9526129768 5.8799192130
60 2 10.2174636739 14.5040343498 3.2995102294
61 3 10.6658640319 14.3984570279 2.4329656905
62 3 7.6883280428 3.5468943475 -2.5822772623
63 2 7.0779100426 3.8350542703 -1.8582077551
64 3 7.6908094396 4.0857938602 -1.1123533068
65 3 14.7755117093 0.7941462518 14.9382986677
66 2 15.3600906603 -0.0190233015 15.0680599535
67 3 14.7233063271 -0.6505302921 15.4313442414
68 3 11.4990156328 1.4402973272 15.6176054927
69 2 12.4290132081 1.2797099048 15.8929439414
70 3 12.9813991394 1.9516885233 15.4539650578
71 3 -11.5198077786 17.1205295011 1.8837506205
72 2 -10.5941848364 17.4255504834 1.6719203845
73 3 -10.1062209541 17.2894912150 2.5517655718
74 3 10.7780883715 -9.9168633467 9.1886694183
75 2 11.7172599023 -10.1388927534 9.4140961352
76 3 11.7129982433 -10.4214734966 10.3711394918
77 3 0.7726165594 -3.1913931055 0.4511124136
78 2 1.0639033612 -2.5133175192 -0.2155324038
79 3 1.0634251735 -1.6164622310 0.2812328616
80 3 -7.5338681136 12.2653810773 -8.6079646839
81 2 -7.5452664744 11.7105311642 -9.4357756111
82 3 -9.2998119838 10.0132101750 -7.8657860237
83 3 0.5136063612 4.0342453315 -3.4544031707
84 2 0.6062665633 3.6167740152 -2.5265255636
85 3 -0.1115390377 2.9521453149 -2.4433154386
86 3 5.3525229099 0.7821885607 -20.3322613310
87 2 6.3253156941 0.5843055455 -20.2974577878
88 3 6.6678283830 -1.0863897401 -20.2140550153
89 3 12.6951714883 -11.2530026886 8.4290545386
90 2 13.3643029952 -11.6985793616 7.8401198285
91 3 14.1246921224 -11.8660087843 8.4205820814
92 3 -4.4192513539 14.3783394731 5.0674066258
93 2 -4.2265356885 13.5084262220 5.2580061947
94 3 -3.4734743763 13.3607890074 6.0109661309
95 3 12.0763318732 5.7453345972 -6.0077634882
96 2 12.4417046407 6.3520424152 -6.7784753903
97 3 12.5118961621 7.2430214533 -6.4258489916
98 3 -2.3462317782 18.5964275999 31.2280228833
99 2 -2.4196361201 19.5696263837 31.1240653610
100 3 -3.3003789079 19.8318294961 31.4550567692
101 3 25.2031817616 12.9627978469 21.3568077200
102 2 25.4255041432 13.3736170903 20.4941153723
103 3 25.3711183916 14.3251544142 20.7097929876
104 3 -6.6633019143 8.5277264050 -15.7591400656
105 2 -5.6852504881 7.5869428778 -17.9506788261
106 3 -6.5797548002 7.4443867657 -17.5940234033
107 2 0.9322903617 10.6126551021 -9.7265685555
108 3 0.1626361332 11.1597171603 -9.5168729135
109 2 -1.8454810586 11.8573928055 8.7199302953
110 3 -2.0697157891 10.9936313784 8.3307117239
111 2 -9.1801105136 6.7760795473 8.0212470853
112 3 -8.1863144505 6.6863040415 8.1543179058
113 2 19.5395566322 4.5983856599 11.0851507770
114 3 20.3281183781 4.0358837133 11.2939004919
115 2 15.7736307416 8.5156860904 6.5609885478
116 3 16.5060849346 8.9356181370 6.0874633777
117 2 17.4487490119 5.4634095283 5.2902217605
118 3 18.3003824920 5.4165775852 5.5626569759
119 2 -1.1624251189 6.9796252643 5.9270117433
120 3 -1.0218391764 7.4757589115 5.1042680792
121 2 3.6814297465 2.4408169821 14.4896224280
122 3 4.6418285379 2.5109871202 14.4829603724
123 2 6.9924774266 8.7886606606 -9.1084185875
124 3 6.7189029611 8.1281846351 -9.7537048074
125 1 -6.3009608895 17.4194943373 -0.6080624261
126 2 -4.6882115224 17.4148747503 0.1554649761
127 3 -4.0158112241 16.8259874101 -0.2107258091
128 2 -6.8779262714 19.0615197110 -0.0578460890
129 3 -7.8443314428 19.1840759963 -0.2525637723
130 2 -7.3132344500 16.0451016553 -0.1661469327
131 3 -7.3226233421 15.7996187086 0.7868171850
132 2 -6.4563919456 17.4238313204 -2.3790830386
133 3 -6.1589404359 18.2202197694 -2.8679883276
ITEM: TIMESTEP
2
ITEM: NUMBER OF ATOMS
133
ITEM: BOX BOUNDS pp pp pp
0 10.809872
0 10.809872
0 10.809872
ITEM: ATOMS id type x y z
1 4 7.2102415256 7.1792379261 4.0862760641
2 4 15.1023360371 9.1944249122 2.0039452304
3 4 24.2932888382 1.8996132786 7.6256109012
4 4 6.1696498281 -9.1962117251 -1.2843111148
5 4 10.7380550267 19.1361597241 -2.4646988866
6 4 1.2454616370 5.2603568288 -0.9471079173
7 4 -14.8070895369 0.7595871432 14.4896033133
8 4 5.6233020870 5.6030096793 2.6464177317
9 4 5.3527878179 5.0506850184 6.8427729675
10 4 -12.2960222939 -1.5995822762 1.4164163121
11 3 12.1768889849 6.1462223991 -3.5715352936
12 2 11.4302468024 4.8418338647 -5.0129019195
13 3 10.9156541272 4.2727087972 -5.5972347432
14 3 3.4777186350 3.4439845282 5.3254655003
15 2 3.2605195334 3.8944293459 6.1713418881
16 3 2.3626013276 4.3008022890 5.9598602763
17 3 9.3476698530 -7.4390120513 17.4321170140
18 2 8.6359785307 -7.9284855935 17.8894743754
19 3 8.8947675078 -9.0962094894 18.6544640233
20 3 1.7868199414 10.5234452633 4.3197512212
21 2 1.7112808450 9.6402268210 3.8788566818
22 3 2.2781511757 11.4030226891 1.3316870245
23 3 5.3710359483 31.3667899358 -2.4368357795
24 2 5.5692552604 31.5562273421 -1.5112962463
25 3 4.9505057674 31.0736857063 -0.9104369694
26 3 -5.6501712696 0.1408548820 6.7838812302
27 2 -5.7014100729 1.0487765010 7.0962185486
28 3 -5.3406516564 1.5031202238 6.3117580295
29 3 -0.9308421106 2.8396606390 -7.3002994450
30 2 -1.2494421824 1.1570990403 -6.5531544512
31 3 -1.5980080132 1.4654027871 -5.6999654171
32 3 9.5987805047 0.0814484643 4.2701082063
33 2 9.5746314168 -1.3301711842 4.0649302643
34 3 10.5289736248 -1.5262291177 3.9882248765
35 3 1.2475024591 2.5398408411 0.5199497021
36 2 1.0370145304 3.4113562430 0.9117062879
37 3 1.8151885379 3.6937987040 1.4351479102
38 3 -3.3711172759 -7.2383513762 1.3621805909
39 2 -4.2138495753 -7.4765938599 1.7739857767
40 3 -4.3999952248 -8.4487723013 1.6396150809
41 3 13.6452439533 -5.6129438561 2.9102753880
42 2 13.8726953691 -6.3065923879 2.2836483175
43 3 14.0861553806 -7.1440732575 2.8980410514
44 3 -0.4310462967 -1.1587139882 5.8003078334
45 2 0.1086928122 -0.9805388053 6.5921229525
46 3 1.0356279272 -0.9576746460 6.3013713420
47 3 -12.4921917075 -5.3068849362 -0.8324612009
48 2 -12.2166734902 -4.6389397992 -1.5583883976
49 3 -12.4913770305 -5.1232585782 -2.3552716331
50 3 -2.3837470259 26.9309897723 12.3416877488
51 2 -2.3211031716 27.4758927795 13.2535684413
52 3 -1.9400243954 26.7663148623 13.8070390695
53 3 7.9292139974 9.5121348054 -3.7660122380
54 2 7.5557297832 9.6298917227 -4.7406015908
55 3 8.3473171584 9.5277625485 -5.3764186275
56 3 19.9015103541 -20.7907600230 -0.3465385095
57 2 19.7917669851 -20.8158475879 0.6539111663
58 3 18.8028903526 -20.8101699074 0.8142309711
59 3 10.1856567191 16.9751637609 5.9696664610
60 2 10.2022046420 14.5769458104 3.3117289759
61 3 10.8571075277 14.3731768705 2.6169379662
62 3 7.7195280224 3.5567235669 -2.6138825358
63 2 7.0668447427 3.8564808414 -1.8673634331
64 3 7.6283316914 4.0172343345 -1.0749034716
65 3 14.8179486707 0.8203802581 14.9845843597
66 2 15.3806510327 0.0135791430 15.0419983268
67 3 14.8099566529 -0.7386475159 15.2013518619
68 3 11.5903854621 1.4583271299 15.6731851143
69 2 12.5258397669 1.3805646944 15.9852461374
70 3 13.1127777487 1.8414188516 15.3187012525
71 3 -11.5053932120 17.1208071560 1.8984204335
72 2 -10.6519666901 17.4758877648 1.6111153521
73 3 -10.0844536535 17.3518731376 2.4173959438
74 3 10.8119125407 -10.0469639720 9.0103240171
75 2 11.7288290852 -10.0147540705 9.3969170288
76 3 11.6610547581 -10.4287711989 10.3322743817
77 3 0.7293414585 -3.0950863884 0.4421888585
78 2 1.0058639157 -2.4322329199 -0.2431210985
79 3 0.9112706708 -1.5616753658 0.2384801948
80 3 -7.4483668489 12.2693542598 -8.6830434261
81 2 -7.5593261363 11.7255452896 -9.4992558391
82 3 -9.3316045083 9.8953072623 -7.8671910024
83 3 0.6061464618 4.0918279648 -3.4236810308
84 2 0.6755030919 3.6036133413 -2.5632780088
85 3 -0.2157095881 3.1610703295 -2.4520817901
86 3 5.3275667520 0.6888735441 -20.3763775191
87 2 6.3082498431 0.6166913331 -20.2110449874
88 3 6.7039400435 -1.0665651886 -20.2052995827
89 3 12.8774547186 -11.2814783620 8.5788362547
90 2 13.4214328206 -11.7868557921 7.9348152480
91 3 14.2853866405 -12.0454258634 8.2943116356
92 3 -4.1682149215 14.8278248524 4.3875214400
93 2 -4.2467056191 13.3523387927 5.2199560720
94 3 -3.5618138184 13.6968399900 5.7094543188
95 3 11.9393177779 5.8668351862 -6.0209427140
96 2 12.4096972128 6.4280523400 -6.7627503984
97 3 12.3581518958 7.3837664805 -6.5166729364
98 3 -2.4113206031 18.5476829530 30.9275242401
99 2 -2.3957523334 19.5207142746 31.0959222598
100 3 -3.3303995713 19.7842532855 31.0642322655
101 3 25.1562850988 12.9135972704 21.3315238324
102 2 25.5240870822 13.4055951653 20.5528838319
103 3 25.4548581077 14.3370781494 20.8628608942
104 3 -6.3383578714 7.9174204687 -15.7129706536
105 2 -5.8332339967 7.7200656743 -17.9176511138
106 3 -6.4348847662 7.3483029734 -17.2244146037
107 2 0.9122096830 10.7025335926 -9.6479143219
108 3 0.1635452759 11.2267986070 -9.3437888534
109 2 -1.8858594029 11.7690050603 8.6586682192
110 3 -1.9520045438 10.8866378136 8.2635506769
111 2 -9.1624720650 6.6770167465 8.0120831881
112 3 -8.1882893806 6.7799943598 7.8887101174
113 2 19.5146116320 4.5405364215 11.0617515291
114 3 20.1770231858 3.8363738555 11.2527500360
115 2 15.8954848837 8.4397368285 6.5488403264
116 3 16.7515959851 8.6200114567 6.0863284266
117 2 17.4669763204 5.3228888832 5.2507797925
118 3 18.3353837466 5.0719403491 5.7602142154
119 2 -1.2156701796 6.9833765290 5.9208915363
120 3 -0.8338398424 7.6154011793 5.3023734922
121 2 3.7013545859 2.4583642182 14.5053014580
122 3 4.6421960224 2.6422030163 14.6413012750
123 2 6.9988347879 8.8168268333 -9.1841592412
124 3 6.6410436827 8.1369313059 -9.8139970339
125 1 -6.3337521761 17.4614571113 -0.6447654045
126 2 -4.7496762742 17.3808035378 0.1615098050
127 3 -4.1208934976 16.6861453656 -0.1052473043
128 2 -6.9375078526 19.0305389448 -0.0725516189
129 3 -7.9136931279 19.0937451978 -0.2089157933
130 2 -7.3019702334 16.0641824026 -0.2007684220
131 3 -7.3764140322 15.7817831134 0.7422158793
132 2 -6.3901970528 17.3750538004 -2.4259312480
133 3 -5.9638167940 18.1016552701 -2.8906373107
ITEM: TIMESTEP
3
ITEM: NUMBER OF ATOMS
133
ITEM: BOX BOUNDS pp pp pp
0 10.809872
0 10.809872
0 10.809872
ITEM: ATOMS id type x y z
1 4 7.1652747313 7.2592473277 4.2089259037
2 4 15.0838878675 9.1633930400 2.1156302438
3 4 24.2746630165 2.0067993055 7.6842007005
4 4 6.1260305048 -9.1531576109 -1.1772994971
5 4 10.7526944787 19.1797381565 -2.3280311127
6 4 1.2750851191 5.3618361943 -0.8488786884
7 4 -14.7665747116 0.8293586202 14.5182909328
8 4 5.5474944050 5.5945993769 2.7430019722
9 4 5.3285205500 5.0419998357 7.1179660311
10 4 -12.3552334375 -1.5211799444 1.5283192829
11 3 12.2521454359 6.0079190179 -3.4970959637
12 2 11.3962908012 4.9206429896 -4.8607365136
13 3 11.1671764617 4.4090480730 -5.6660123033
14 3 3.3358443235 3.5423796538 5.4992624769
15 2 3.2296771949 4.0791565869 6.3242019649
16 3 2.2976379295 4.4121430384 6.2048965111
17 3 9.4382757648 -7.6906730592 17.5749577713
18 2 8.5926631301 -7.8365275800 18.0010025737
19 3 8.7687535162 -8.9948282996 18.7916508629
20 3 1.7235254686 10.5569223982 4.4435614938
21 2 1.6906673143 9.6874211930 3.9595516409
22 3 2.2560286292 11.4277124454 1.4782527138
23 3 5.5071373150 31.2616726459 -2.3020775834
24 2 5.5462371318 31.5465980197 -1.3796623145
25 3 4.8911837638 30.9707322897 -0.8989879346
26 3 -5.8827578449 0.1787856732 6.6743575027
27 2 -5.7209242676 1.0188947365 7.1188016434
28 3 -5.2033731808 1.5491586076 6.4932605277
29 3 -1.0139241364 2.9687903153 -7.2304143040
30 2 -1.2036071929 1.1853073944 -6.4512657867
31 3 -1.6740336570 1.3199882477 -5.6096173130
32 3 9.5227604465 0.1166265549 4.2002434984
33 2 9.4681376065 -1.3118922793 4.2035582738
34 3 10.3554645900 -1.5877919755 3.9196466097
35 3 1.2572193051 2.6173262340 0.8536709028
36 2 1.0603889098 3.5695204049 1.0024002776
37 3 1.8599534479 3.9476608486 1.4594120777
38 3 -3.5181203614 -7.1156701128 1.3331988195
39 2 -4.2482157171 -7.4228300662 1.8952528674
40 3 -4.3432960105 -8.3973714915 1.7073890868
41 3 13.2103627900 -5.7236783575 2.8836468594
42 2 13.8695381939 -6.2235862631 2.3808815080
43 3 14.1966514612 -7.0861066297 2.9514627954
44 3 -0.2207333579 -0.9698441177 5.9031844556
45 2 0.1910986166 -0.9116237255 6.7800111810
46 3 1.1092349936 -0.6341057246 6.6660649017
47 3 -12.5300506215 -5.2207382684 -0.6323708561
48 2 -12.2634101182 -4.5884415692 -1.4021346158
49 3 -12.4794407690 -5.1569236760 -2.1649695232
50 3 -2.3068565334 27.0671830720 12.3642458221
51 2 -2.3820429136 27.5574021778 13.3254440255
52 3 -1.9586405734 26.8600507349 13.8680686151
53 3 7.5348126359 9.3035971499 -3.7683990469
54 2 7.5727269312 9.5612225098 -4.7348112180
55 3 8.4720504173 9.4838034947 -5.1818213272
56 3 19.8112715714 -20.6944220450 -0.2570741704
57 2 19.8010544526 -20.7421697278 0.7130053825
58 3 18.8584567556 -20.6307914719 0.9491323198
59 3 10.1527388761 17.1139810087 5.8707351757
60 2 10.1558577463 14.6839437894 3.4686344799
61 3 10.6347766024 14.6659141919 2.6139386519
62 3 7.6975175470 3.7406231532 -2.4726044145
63 2 6.9996000905 3.9446533963 -1.7831211446
64 3 7.5227328201 4.1770020111 -0.9657937858
65 3 14.8863820400 0.8394649859 14.9166803998
66 2 15.4441749274 0.0505364526 15.1430646079
67 3 14.9418640779 -0.7424158783 15.3442849153
68 3 11.7107827072 1.8010989686 15.8732753591
69 2 12.5934164445 1.5039985111 16.1648513490
70 3 13.2246563351 2.0107451215 15.5952080430
71 3 -11.6412456714 17.4218969294 1.9393480966
72 2 -10.6644834351 17.6098358110 1.6751346850
73 3 -10.2170323008 17.5524969995 2.5288245875
74 3 10.8397963757 -9.9423071306 9.1246305564
75 2 11.7539108202 -9.8706870499 9.4716740722
76 3 11.6735678649 -10.0635832600 10.4278081631
77 3 0.6345262580 -2.8953480753 0.5180448854
78 2 0.9266175908 -2.2369680326 -0.1620234317
79 3 0.9212097045 -1.3782747781 0.3919415458
80 3 -7.3437951123 12.3187044031 -8.6727767998
81 2 -7.5579699080 11.7981229577 -9.4681561352
82 3 -9.4298368959 9.9916077122 -7.7435661572
83 3 0.6309348248 4.0192684113 -3.4899507310
84 2 0.7283575646 3.6683668378 -2.5305685167
85 3 -0.1993056419 3.3871398254 -2.3295816419
86 3 5.3656317502 0.7268076953 -20.3610006259
87 2 6.2920486603 0.7131405268 -20.0554663749
88 3 6.7459934717 -0.9401847485 -20.2359365743
89 3 12.9453872828 -11.3185979476 8.8268383317
90 2 13.4299631104 -11.7767877374 8.1072215218
91 3 14.1231029033 -12.3563011333 8.4922057727
92 3 -4.5282790659 14.1780789521 5.4641917803
93 2 -4.2131931729 13.3290508775 5.2272030459
94 3 -3.6863363485 12.8932661592 5.9549822361
95 3 12.0775192909 6.0531920738 -5.8895176250
96 2 12.4363508725 6.6029775308 -6.6717847543
97 3 12.4433249315 7.5583625863 -6.3637726316
98 3 -2.4115642886 18.5786515807 31.1711391243
99 2 -2.3934063503 19.5660908616 31.1161352789
100 3 -3.3319802239 19.8087153611 31.0999813294
101 3 25.1979654086 13.0044387774 21.5225358471
102 2 25.5864748295 13.4902992209 20.7476201537
103 3 25.5517934287 14.4632299133 21.0521877636
104 3 -5.9201603988 8.2604933724 -15.7787828454
105 2 -6.0172341245 7.8731120643 -17.7723856827
106 3 -6.6982722038 7.1420920075 -17.7633120045
107 2 0.8808876148 10.8186628114 -9.4530723071
108 3 0.1753588782 11.4233083627 -9.1873066361
109 2 -1.9458499488 11.7655378350 8.7029123907
110 3 -1.8356597813 11.0068151422 8.1139792501
111 2 -9.1775051744 6.6360347407 8.0386384168
112 3 -8.2220378677 6.8243084040 7.9480622572
113 2 19.4532026308 4.5543750594 11.1535150881
114 3 20.2232113218 3.9777170609 11.2658200449
115 2 16.0240222472 8.4669022062 6.6902004474
116 3 16.9562906052 8.6651184378 6.4331849814
117 2 17.5847739750 5.2702646269 5.1793109204
118 3 18.3567176181 5.0658272244 5.3321272082
119 2 -1.2749923496 7.0327818004 6.0381626822
120 3 -0.9907846034 7.7762386975 5.4821632515
121 2 3.6963880809 2.5475982202 14.6153681201
122 3 4.5966645834 2.7012071853 14.9417384521
123 2 7.0184143691 8.9272284160 -9.1272779896
124 3 6.8052914827 8.2447567869 -9.8313860352
125 1 -6.3431956092 17.5272985415 -0.5802053958
126 2 -4.8308233262 17.4519430410 0.3171157114
127 3 -4.2571649056 16.7307322514 -0.0046706861
128 2 -7.0007720077 19.0736309297 -0.0122155495
129 3 -7.9530814557 19.2194748627 -0.1570764904
130 2 -7.3109652177 16.1241868436 -0.1606357209
131 3 -7.3763731952 16.0008799092 0.8134636521
132 2 -6.3156592867 17.4444518934 -2.3257636527
133 3 -5.9538446109 18.1977774539 -2.8423841217
ITEM: TIMESTEP
4
ITEM: NUMBER OF ATOMS
133
ITEM: BOX BOUNDS pp pp pp
0 10.809872
0 10.809872
0 10.809872
ITEM: ATOMS id type x y z
1 4 7.1730267240 7.3621918828 4.2087210981
2 4 15.0661713831 9.1317376750 2.1832119309
3 4 24.2602553589 2.0407512853 7.6722448396
4 4 6.1692034230 -9.1725418299 -1.2097768735
5 4 10.7359521613 19.1358150046 -2.3232991269
6 4 1.2753749977 5.3533168575 -0.8168812234
7 4 -14.6889436130 0.8846027728 14.5197826460
8 4 5.5750211556 5.4620491294 2.7129827248
9 4 5.3791014599 4.9368383154 7.2741893564
10 4 -12.3722758029 -1.5146123117 1.4790921077
11 3 12.1421945922 6.1122036365 -3.6943511149
12 2 11.4337036358 4.9576680854 -4.8276781263
13 3 11.1374348084 4.4054172545 -5.5925872340
14 3 3.4591142325 3.8446327734 5.4522517331
15 2 3.2035366799 4.1388691410 6.3579309033
16 3 2.2700588912 4.4927602517 6.2028384485
17 3 9.2421728563 -7.4581710701 17.5284567940
18 2 8.5571565319 -7.8831111814 18.0325095122
19 3 8.8029327261 -9.0473733075 18.8135910966
20 3 1.7087879868 10.4455154202 4.5260009975
21 2 1.6990537795 9.7130707277 3.8811988839
22 3 2.3081447843 11.4659302162 1.3165854073
23 3 5.2439534342 31.3299876672 -2.2595415248
24 2 5.5988307170 31.4658426179 -1.3573162022
25 3 4.8730393854 31.0119611208 -0.8646004308
26 3 -6.1324007255 0.2439224463 6.5426677417
27 2 -5.7333183475 0.9551210105 7.0587339410
28 3 -5.3946109355 1.7119545718 6.4454533765
29 3 -0.9770989458 2.9758384748 -7.1417315203
30 2 -1.1776184108 1.1914341855 -6.4567297246
31 3 -1.3844856678 1.3221840040 -5.5038873957
32 3 9.6373792390 0.1502085721 4.3046403503
33 2 9.3938384723 -1.4251093200 4.2140608387
34 3 10.3306514975 -1.6843987254 4.1859325010
35 3 1.1084536966 2.6685168951 0.8090408171
36 2 1.0763204357 3.6313792984 0.9694912878
37 3 1.8466038008 3.9030645528 1.5432073862
38 3 -3.5268919055 -7.1939589825 1.2703438777
39 2 -4.2714681756 -7.3853429656 1.9231566166
40 3 -4.4589378209 -8.3357627835 1.7068791714
41 3 13.4100387468 -5.5836810493 3.0267792489
42 2 13.8945745584 -6.2213799213 2.4484587926
43 3 14.2016060404 -7.1246945467 2.9992267250
44 3 -0.0195760617 -0.6499541579 5.8880411071
45 2 0.2165349730 -0.8968702297 6.8032153688
46 3 1.1197276899 -0.5937054263 6.9866006600
47 3 -12.5721534057 -5.3406182816 -0.6810972245
48 2 -12.2489893734 -4.6206320170 -1.3683256952
49 3 -12.5090581934 -4.9225847968 -2.2550864827
50 3 -2.4103755232 26.9836050243 12.4492453176
51 2 -2.3803414322 27.5790798990 13.2897908677
52 3 -2.1551746061 26.9335871441 13.9945548847
53 3 8.2002551478 9.4261136956 -4.0747579129
54 2 7.6259080382 9.4624860660 -4.7954790981
55 3 8.2736017778 9.3356954369 -5.6090305657
56 3 19.7934911261 -20.7780258452 -0.2811092291
57 2 19.8095574979 -20.7084901475 0.6970696356
58 3 18.8475518166 -20.6520555937 0.9213724934
59 3 10.1821414585 17.0520986976 5.9448150607
60 2 10.1359557765 14.6893629163 3.4856948912
61 3 10.5045041940 14.6975966262 2.5788520667
62 3 7.6051296805 3.6960381877 -2.5648883711
63 2 6.9318180042 3.9751408878 -1.8242672674
64 3 7.5290834466 4.1123947643 -1.0467349925
65 3 14.8826508041 0.7068247743 14.9367427752
66 2 15.5093202706 -0.0265188975 15.1414961113
67 3 15.0539869725 -0.8858749138 15.2236884479
68 3 11.7842423183 1.7901447214 15.8491395555
69 2 12.6388220719 1.5415848049 16.2344674340
70 3 13.3129595747 1.9249008106 15.5655963729
71 3 -11.5512858985 17.2288956639 1.8956929001
72 2 -10.6973367462 17.6567683697 1.6673164918
73 3 -10.1727347375 17.6477110966 2.5163619061
74 3 10.8582782208 -9.7431333180 9.1935916690
75 2 11.7899160836 -9.8494736057 9.4543721025
76 3 11.7655578740 -10.1442905830 10.3922566065
77 3 0.6703312219 -2.7678707242 0.5296867674
78 2 0.8819917916 -2.1002532873 -0.1760947425
79 3 0.8473879190 -1.2363853070 0.3907692435
80 3 -7.4354744618 12.3181343544 -8.6732837519
81 2 -7.5347685415 11.7863760350 -9.5046282491
82 3 -9.4100641990 10.1547742961 -7.7703684228
83 3 0.4580884281 4.1984117594 -3.4417669188
84 2 0.7457352107 3.6904550784 -2.6244843052
85 3 -0.0046404755 3.1775637040 -2.3102054608
86 3 5.3786321001 0.7703319665 -20.2894626717
87 2 6.3208342405 0.7058236357 -20.1398619425
88 3 6.6534233064 -0.9307798198 -20.1611562297
89 3 13.0002881526 -11.4151483815 8.9248327724
90 2 13.4251570694 -11.8102664282 8.1404898854
91 3 13.8194167460 -12.6295492842 8.5199355174
92 3 -4.0017863019 14.4246302455 4.7082425345
93 2 -4.2143596390 13.3038331943 5.2504028053
94 3 -3.5074990373 13.4151115880 5.9479009456
95 3 12.1062355860 6.1660806344 -5.9207303114
96 2 12.4517859651 6.6932736151 -6.6880311085
97 3 12.7204917635 7.5917506120 -6.3920475570
98 3 -2.3795286869 18.5710389626 31.1299305200
99 2 -2.3945424958 19.5525505659 31.0339757149
100 3 -3.2607650728 19.9065128467 31.3261074590
101 3 25.2475520296 12.9793969014 21.5625119822
102 2 25.6414134802 13.4670619870 20.8110691378
103 3 25.4473495923 14.4067615285 20.9392788717
104 3 -5.9350801445 8.3024546883 -15.9646248693