-781064.605 
-781100.120 
-781070.421 
-781079.142 
-781123.022 
-781126.290 
-781133.297 
-781095.745 
-781138.745 
-781094.402 
-781138.089 
-781127.570 
-781139.669 
-781080.436 
-781127.583 
-781099.054 
-781071.540 
-781126.786 
-781125.450 
-781064.747 
