0
-1.18057
-25.1542
-10.9893
-15.8612
0.0978914
-12.0028
-8.33441
-25.4842
0.346084
-1.22073
-16.2873
0.141169
-9.68519
0.0381967
7.98068
15.2526
-12.6818
1.4866
-9.71744
11.4967
-8.49382
14.5872
-3.86216
-4.24027
6.95572
3.86952
-5.04765
1.91227
-1.25989
-11.7104
0.172392
-12.2267
-1.69744
-26.103
-20.9935
-0.788285
-11.4673
-9.01234
-20.5687
