-365170.324 
-365169.013 
-365180.769 
-365200.361 
-365214.786 
-365202.743 
-365197.911 
-365202.537 
-365197.987 
-365211.833 
-365215.661 
-365201.128 
-365217.352 
-365222.120 
-365222.618 
-365205.887 
-365192.822 
-365193.682 
-365206.889 
-365221.998 
-365210.457 
-365207.006 
-365215.084 
-365211.169 
-365204.313 
-365195.728 
-365190.706 
-365206.916 
-365209.689 
-365222.970 
-365221.947 
-365228.474 
-365217.321 
-365212.819 
-365213.529 
-365217.634 
-365218.242 
-365216.762 
-365216.585 
-365206.311 
-365215.447 
-365211.924 
-365214.016 
-365206.816 
-365194.002 
-365194.894 
-365196.044 
-365206.463 
