ITEM: TIMESTEP
0
ITEM: NUMBER OF ATOMS
93
ITEM: BOX BOUNDS pp pp pp
0 9.494431
0 9.494431
0 9.494431
ITEM: ATOMS id type x y z
1 4 4.4456925750 5.5623806012 -2.2188452678
2 2 2.1277215543 -2.8731216247 3.6375458925
3 3 1.1624890833 -3.1663711689 3.6067465456
4 3 2.5276663721 -3.3602505817 4.3926457455
5 2 -4.6266618424 6.4473524301 -4.5648962151
6 3 -3.8659384004 5.8639810356 -4.7700347633
7 3 -4.2100150706 7.2434820783 -4.1618994243
8 2 5.9040641301 7.9190114022 -0.0385032621
9 3 6.7314934105 7.3260067009 0.3747012694
10 3 5.0757678921 7.4131350546 0.1830764357
11 2 5.9463807643 11.7070992252 3.4455071833
12 3 5.1521795142 11.8325985022 4.0209181034
13 3 6.6301228447 12.2498753871 3.8245309772
14 2 11.7804281768 -4.0905856325 6.2995731993
15 3 11.0413752363 -3.4947087624 6.4893839998
16 3 11.3822401131 -4.9129283375 6.0288780840
17 2 12.2915789697 0.9354325668 8.7153741509
18 3 11.6124352173 0.9565940940 8.0215798538
19 3 12.8829117199 1.7346737417 8.5046003105
20 2 8.5597777262 1.4242341822 5.3777771243
21 3 8.2163540849 0.6279461431 4.9122565029
22 3 7.9029948944 1.6062912725 6.1227911834
23 2 2.3111925036 4.4132732968 9.3014567640
24 3 2.1501822679 5.3997264999 9.5979735317
25 3 1.8282870628 4.3295834642 8.4612016903
26 2 16.9856799538 2.1277091864 0.6312250595
27 3 17.2797732913 1.2570900162 0.6765281965
28 3 16.1777159513 2.2671738967 1.1627768194
29 2 3.3491231990 -1.9005052191 -1.5498829903
30 3 2.7612435802 -2.1174558424 -0.7391409106
31 3 3.4991797501 -0.9516110592 -1.5014845970
32 2 14.9849865572 -0.2658891028 -6.7891562330
33 3 15.2013348753 0.6818545534 -6.6408848728
34 3 15.1576914468 -0.5043855417 -7.7576366795
35 2 4.2664046586 2.9238738323 -2.2432906449
36 3 5.1418042655 2.5010808365 -2.1687587095
37 3 3.8962896361 2.6778691721 -3.1435540034
38 2 6.3782812052 -1.3049562082 6.7710464319
39 3 6.2235234692 -1.4300027013 7.7437840385
40 3 7.3083803803 -1.5630465850 6.6426144192
41 2 -0.0455777239 3.7078755963 7.4063015859
42 3 -0.3547210846 4.1040232872 6.5454879799
43 3 -0.4540145073 4.2627865770 8.0740238720
44 2 4.9834420688 -3.5875309267 1.6870108042
45 3 4.5586587116 -3.4043352361 2.5335113519
46 3 4.6967313425 -4.4896146053 1.4047258467
47 2 12.4970190858 9.1769625005 3.7509291775
48 3 13.3607425327 8.8689018416 3.3889031861
49 3 11.9457733664 8.3536635317 3.8833956979
50 2 9.4749486206 7.4420871537 16.4786023755
51 3 9.4605991698 7.1451302905 17.2520679351
52 3 10.1709641414 8.1357675924 16.4720026805
53 2 1.2656353533 19.3982854085 6.3582254652
54 3 0.4773874519 19.8333983134 5.9804170322
55 3 1.9614991415 19.5347681462 5.7098714402
56 2 6.5892419193 1.5292586524 -1.9023038487
57 3 6.5884355147 0.5658415768 -2.1610306704
58 3 6.9256015181 1.6845609218 -1.0179580067
59 2 -3.1214817233 4.7967972344 8.3735729378
60 3 -2.9979887759 3.9195605373 8.7999790047
61 3 -2.7203545969 5.3991089905 8.9654114753
62 2 4.4937871961 3.2524361425 0.7886157214
63 3 4.1260082211 2.5739672087 1.3880325199
64 3 3.7402369417 3.5334076067 0.2225650925
65 2 -0.7554843951 9.3324955222 1.4973142268
66 3 -0.6772636681 8.5532073747 1.0568160417
67 3 0.1540474892 9.9665023335 1.8107734960
68 2 3.5189110169 2.1817942822 4.6656845328
69 3 3.4125384145 1.2206916046 4.5495786247
70 3 2.6305552669 2.5410611914 4.4119502025
71 2 -1.7533382397 -10.3389670578 3.9511848964
72 3 -1.5573736149 -10.0777957498 2.9918709698
73 3 -2.7436128703 -10.2733782792 3.9615806893
74 2 -0.0212228690 -5.5500110285 1.7940335807
75 3 0.6886830655 -5.5371939608 1.1654045119
76 3 -0.5095442618 -6.3447392069 1.5181874893
77 2 -2.7096073099 -4.7861780992 -5.3154022632
78 3 -3.2601225822 -4.7821647055 -6.1491455462
79 3 -1.8960861694 -4.2742944289 -5.5651983211
80 2 10.3477192026 3.3007747323 -5.0623269321
81 3 10.1664026647 3.6481422697 -6.0071507735
82 3 9.6297862058 2.6577187491 -4.9041338940
83 2 -7.7853420358 1.1624836354 11.3029708928
84 3 -7.4162319134 1.0340926704 10.3479260576
85 3 -7.2690532300 0.5804705849 11.8876543114
86 2 1.9882127152 6.9969314203 10.3033023613
87 3 0.8850053211 7.0581843919 10.1526587036
88 3 2.1929766920 6.8341616446 11.2457384051
89 2 -0.4882487750 6.3620063516 13.5108652851
90 3 -0.2893593817 6.4147942069 14.4520393206
91 3 -1.0272460769 7.2150404567 13.4001730402
92 2 8.5920996823 6.6583136567 0.2169346458
93 3 8.8326388008 5.8148273151 0.9360396353
ITEM: TIMESTEP
1
ITEM: NUMBER OF ATOMS
93
ITEM: BOX BOUNDS pp pp pp
0 9.494431
0 9.494431
0 9.494431
ITEM: ATOMS id type x y z
1 4 4.4376151318 5.5749804917 -2.2006422881
2 2 2.1619797809 -2.9159590518 3.6121111476
3 3 1.1781505515 -3.0583786619 3.7730931118
4 3 2.6055558389 -3.2090048604 4.4544605929
5 2 -4.5918847330 6.4476291469 -4.5607386360
6 3 -3.8268243334 5.8802533272 -4.7313624548
7 3 -4.2351287023 7.1980645727 -4.0665317739
8 2 5.8958192406 7.8616603037 -0.0205873035
9 3 6.8153190310 7.4194438585 0.3538616311
10 3 5.2105975375 7.1529370949 0.1883560131
11 2 5.9255505400 11.6967930932 3.4304965306
12 3 5.0576437641 11.9107873128 3.8774084734
13 3 6.5397166044 12.3224773186 3.7785884304
14 2 11.7512919694 -4.1069611935 6.2711529612
15 3 10.9481007899 -3.6006971863 6.4775710374
16 3 11.4287693326 -4.9557944105 5.9370043792
17 2 12.2902397742 0.8838113297 8.6637267715
18 3 11.6019922130 0.9625870218 7.9604343308
19 3 12.9093881714 1.6620475920 8.4184125644
20 2 8.5526216093 1.4761771629 5.4060924463
21 3 8.1500734191 0.7646736022 4.8603644135
22 3 7.9433642123 1.6757489304 6.1958457370
23 2 2.2691049390 4.4009826668 9.3107984838
24 3 2.1611244033 5.4138505442 9.5727835197
25 3 1.7464700680 4.1997587646 8.5373314812
26 2 16.9670747120 2.1882321484 0.5843356508
27 3 17.2725975132 1.4095160550 0.9674749727
28 3 16.1477961299 2.3245917591 1.0970795642
29 2 3.3992927468 -1.9199463141 -1.5306681409
30 3 2.9080061901 -2.1308291496 -0.6449623165
31 3 3.3781120458 -0.9493032027 -1.4491553585
32 2 14.9902654166 -0.3052035581 -6.7371577325
33 3 15.2196251888 0.6423589115 -6.6632473865
34 3 15.0641859952 -0.5662828424 -7.7172242257
35 2 4.2881040965 2.9290835817 -2.2612959529
36 3 5.1659629289 2.4964287675 -2.1957805894
37 3 4.0219633813 2.6394769465 -3.1706636473
38 2 6.4184548819 -1.2727539013 6.7736815167
39 3 6.3856263752 -1.5596235896 7.7107299029
40 3 7.3652575409 -1.3003701945 6.5292949187
41 2 -0.0468507134 3.7485835293 7.4256700843
42 3 -0.5167717029 4.1275979024 6.6591742717
43 3 -0.4565303930 4.2289242301 8.1770381703
44 2 4.9864788330 -3.5827386695 1.7109500215
45 3 4.4654642869 -3.2551788879 2.4332519720
46 3 4.6442381963 -4.4857516940 1.5386845825
47 2 12.4782763758 9.1835877099 3.8205676020
48 3 13.3930806282 9.0301292822 3.4586834671
49 3 12.0867982760 8.2620761890 3.9263715400
50 2 9.4319491046 7.4142004480 16.5468052853
51 3 9.4717364518 7.0983173052 17.2998082530
52 3 10.0555196075 8.1056140609 16.4559460920
53 2 1.2410267414 19.4566126261 6.3509673591
54 3 0.3663738692 19.8001890944 6.0718428767
55 3 1.8247444852 19.5215066875 5.5493078207
56 2 6.5772247361 1.5375576180 -1.9875794444
57 3 6.5283052763 0.5279142579 -1.9992589743
58 3 6.9548475573 1.7004282155 -1.1232385625
59 2 -3.1061573800 4.7694545974 8.3615236495
60 3 -3.0739828180 3.9467117397 8.8650007509
61 3 -2.6914257890 5.3677010324 8.9148661344
62 2 4.4667332852 3.2897277548 0.8094607132
63 3 4.0055458050 2.7271978217 1.4496372884
64 3 3.7323685805 3.5304183717 0.1823296041
65 2 -0.7736976028 9.3609658019 1.4886104264
66 3 -0.6004325350 8.5528030665 1.1004979909
67 3 0.3541675124 9.6920852726 1.5743254509
68 2 3.4986928740 2.2144585441 4.6418776418
69 3 3.4475934244 1.2357634383 4.5560214013
70 3 2.6584288701 2.5381109527 4.2327915026
71 2 -1.7230194581 -10.2727114069 3.9711503868
72 3 -1.4834263884 -10.0204561670 3.0323992637
73 3 -2.7097711577 -10.3275592072 3.9398779348
74 2 0.0170837668 -5.5593360924 1.8214974377
75 3 0.8284590848 -5.7221895242 1.3738900689
76 3 -0.5665361669 -6.3211249851 1.6041201729
77 2 -2.7189098059 -4.8492269210 -5.3843977353
78 3 -3.1921246607 -4.9019737176 -6.2516524835
79 3 -1.8645444051 -4.3797228773 -5.6157013875
80 2 10.3558184820 3.3193145518 -5.0998111341
81 3 10.0900571829 3.6289687624 -6.0426360962
82 3 9.6362459463 2.7097176985 -4.8128190803
83 2 -7.7695446276 1.1583541490 11.3157502272
84 3 -7.3130993122 1.0035776368 10.4084995481
85 3 -7.2598919645 0.6126065844 11.9607080193
86 2 2.0047577473 6.9910189596 10.3026130643
87 3 0.9283218109 7.1626861333 10.3219731047
88 3 2.2174144643 6.9319616200 11.2601971936
89 2 -0.4963358263 6.3369886127 13.5264043451
90 3 -0.4535495238 6.3601719369 14.5126182581
91 3 -0.9286618629 7.2396198459 13.3626290764
92 2 8.5962369410 6.7470501548 0.2387663019
93 3 8.8838979961 5.8248412388 0.7887100600
ITEM: TIMESTEP
2
ITEM: NUMBER OF ATOMS
93
ITEM: BOX BOUNDS pp pp pp
0 9.494431
0 9.494431
0 9.494431
ITEM: ATOMS id type x y z
1 4 4.4300723749 5.5822900966 -2.1977238530
2 2 2.2078145123 -2.9400314292 3.6038638942
3 3 1.2440813973 -3.0061543589 3.8181170699
4 3 2.6934688247 -3.2734727852 4.4085101308
5 2 -4.5643443569 6.4667601697 -4.5350059694
6 3 -3.8054987759 5.9268646938 -4.7781144204
7 3 -4.1825928740 7.1909283306 -4.0425234386
8 2 5.8858984856 7.8188423125 0.0058577466
9 3 6.8711315355 7.5949187191 0.4306740687
10 3 5.3454575865 7.0381721689 0.3395057747
11 2 5.9039550403 11.6819210894 3.3998653869
12 3 5.0037699192 11.9442702213 3.7303236634
13 3 6.5173638860 12.2422232569 3.8723870175
14 2 11.7093550054 -4.1295349450 6.2277152855
15 3 10.9566342467 -3.6260044851 6.5863898630
16 3 11.2979628226 -4.9202161144 5.7905069427
17 2 12.2836177272 0.8458368799 8.6117880044
18 3 11.5959267336 0.7812222820 7.8900160094
19 3 12.9500754074 1.5107971054 8.2432408940
20 2 8.5236296567 1.5371181164 5.4302490845
21 3 8.0596131354 0.8427105993 4.9101487720
22 3 7.8389243175 1.7130588795 6.1639644216
23 2 2.2224241134 4.3860809542 9.3104261658
24 3 2.0159082362 5.3913295286 9.5966437173
25 3 1.7198303430 4.2622803597 8.4974386627
26 2 16.9374463475 2.2271391381 0.5703665244
27 3 17.3385864906 1.5203524371 0.9679696254
28 3 16.1089701998 2.4476652550 1.0087506493
29 2 3.4346269512 -1.9209780487 -1.4880859541
30 3 2.9961135805 -2.1245525528 -0.5843306967
31 3 3.4537280664 -0.9446956888 -1.5395681244
32 2 14.9555002161 -0.3503621849 -6.7085134188
33 3 15.2917957823 0.5642198893 -6.6621325130
34 3 15.0361138525 -0.6909443735 -7.6518081119
35 2 4.3028558193 2.9370074201 -2.2784503908
36 3 5.1451447774 2.4500160346 -2.1610045086
37 3 3.9353038725 2.6934420777 -3.1469217492
38 2 6.4666017948 -1.2294555115 6.7799211692
39 3 6.3600740686 -1.6228399085 7.6856261102
40 3 7.4344028199 -1.2877508530 6.6130699542
41 2 -0.0659900399 3.8021766367 7.4609594911
42 3 -0.6015322302 4.0460412289 6.7148097800
43 3 -0.6080181673 4.1216979493 8.2316420557
44 2 4.9901239227 -3.5868212660 1.7512556541
45 3 4.4413365011 -3.1645792233 2.4126955425
46 3 4.6402958390 -4.4758465427 1.5817130047
47 2 12.4643713294 9.1741810921 3.8879172791
48 3 13.3691302005 9.1663006026 3.4863193424
49 3 12.2099782993 8.1893184454 3.8642453481
50 2 9.3991796046 7.3724039193 16.5588769313
51 3 9.3485408557 7.2231975077 17.3648015589
52 3 9.9273102778 8.1024630011 16.4849608753
53 2 1.2415248152 19.4887627341 6.3577469101
54 3 0.3738664977 19.8933640529 6.1239753973
55 3 1.6897357078 19.3768642222 5.4729182632
56 2 6.6072512256 1.5241310633 -2.0646779693
57 3 6.2313079069 0.5920242758 -2.0538438777
58 3 7.0053222732 1.7386538528 -1.2273754297
59 2 -3.0682899089 4.7515387240 8.3668884327
60 3 -3.2878989264 4.0214632485 8.9276736185
61 3 -2.4409060041 5.3224413814 8.7630681391
62 2 4.4534649042 3.3130376879 0.8368826154
63 3 3.9556286692 2.8707564963 1.5291917764
64 3 3.7440157233 3.6511575473 0.2075084698
65 2 -0.7598985629 9.4114236137 1.5057194590
66 3 -0.8996166550 8.5873372752 1.0975669215
67 3 0.3075172636 9.8794468898 1.5184502605
68 2 3.4741183418 2.2538444137 4.6031208838
69 3 3.3384032118 1.2710221651 4.5190922922
70 3 2.5711904816 2.6371017806 4.3837616241
71 2 -1.6759418934 -10.2023845355 3.9877823380
72 3 -1.2871511320 -9.8650772675 3.1456975098
73 3 -2.5906335721 -10.4311643028 3.6912122513
74 2 0.0591165362 -5.5538294974 1.8522074427
75 3 0.8736528313 -5.8885757468 1.4574486433
76 3 -0.6289123514 -6.1628069675 1.4671951517
77 2 -2.7032440728 -4.9091450941 -5.4789277750
78 3 -3.1063565567 -4.6949126706 -6.3378167886
79 3 -1.8183372794 -4.4282758962 -5.5264581151
80 2 10.3759002454 3.3428342841 -5.1294257187
81 3 9.9290479412 3.6118891416 -6.0132507185
82 3 9.7403486629 2.7090450696 -4.6995962271
83 2 -7.7668846340 1.1505026199 11.3146094946
84 3 -7.2787008808 0.9927780757 10.4418072939
85 3 -7.3397246226 0.5977946559 12.0291340133
86 2 2.0323345703 6.9830518855 10.3083180918
87 3 1.0091767285 7.2246109840 10.2920385082
88 3 2.3332633312 6.9113662550 11.2480958578
89 2 -0.5136856814 6.3082986849 13.5700508665
90 3 -0.5280089248 6.3330754439 14.5664988333
91 3 -0.9237665641 7.2094707556 13.3514978952
92 2 8.5898143570 6.7719216124 0.2689360152
93 3 8.8135010664 5.8866180217 0.8007188026
ITEM: TIMESTEP
3
ITEM: NUMBER OF ATOMS
93
ITEM: BOX BOUNDS pp pp pp
0 9.494431
0 9.494431
0 9.494431
ITEM: ATOMS id type x y z
1 4 4.4244326440 5.5861983623 -2.1955609680
2 2 2.2682411212 -2.9529219290 3.6117482360
3 3 1.3175936278 -3.1504614344 3.7294961507
4 3 2.6782518070 -3.4412989504 4.3756834285
5 2 -4.5295888070 6.4940167798 -4.5014546233
6 3 -3.8409250700 5.8879873338 -4.8145862204
7 3 -4.0676580888 7.2445851228 -4.1424815308
8 2 5.8638222672 7.8011652504 0.0406090112
9 3 6.9284341301 7.6180461195 0.3722314361
10 3 5.4115934923 7.0442168761 0.5004198950
11 2 5.8817862319 11.6457796507 3.3524483659
12 3 4.9938197318 11.8500159449 3.7505661112
13 3 6.5099715348 12.2049464338 3.8626531875
14 2 11.6622025320 -4.1647089907 6.1800448496
15 3 11.0515281818 -3.5885862842 6.6689365963
16 3 11.0655320649 -4.8039064280 5.6734493207
17 2 12.2791454572 0.8121273292 8.5629506782
18 3 11.6171085160 0.6567638231 7.8131934957
19 3 12.8300263457 1.5498838237 8.1840347329
20 2 8.4539890609 1.6067138958 5.4481456413
21 3 8.1685217316 0.8157185685 4.9415374496
22 3 7.7873459006 1.7157244848 6.2003788993
23 2 2.1764853046 4.3788500576 9.2937267457
24 3 1.9314600486 5.3258276990 9.7063104374
25 3 1.7551447121 4.2911812763 8.4104296177
26 2 16.9195703649 2.2737181995 0.5643464244
27 3 17.2119120565 1.4710924816 0.8255952702
28 3 16.1330369024 2.3550126717 1.1119999257
29 2 3.4580083379 -1.9218266374 -1.4486881460
30 3 2.9870780493 -1.9515029620 -0.5613881153
31 3 3.5950600774 -0.9405169529 -1.5157450976
32 2 14.9156601733 -0.4079635247 -6.7075220953
33 3 15.2277502162 0.5134109322 -6.6144546883
34 3 14.9926715760 -0.6674699916 -7.6648784813
35 2 4.2885554389 2.9547654881 -2.2861029351
36 3 5.1762206038 2.5315055684 -2.3484853539
37 3 3.9445118078 2.7355987144 -3.1644114611
38 2 6.5102076703 -1.1987694815 6.7952683502
39 3 6.2001635065 -1.5025307931 7.7185824915
40 3 7.4652878905 -1.4161164768 6.7549953984
41 2 -0.0944422695 3.8568492675 7.5052290613
42 3 -0.6342704130 3.9155884869 6.7192213968
43 3 -0.7675876134 3.9362240028 8.2179516498
44 2 5.0091709477 -3.5930178926 1.8031728058
45 3 4.4368033704 -3.2554502728 2.5279655983
46 3 4.6398713863 -4.4500725809 1.5525361837
47 2 12.4575972747 9.1554973628 3.9349699406
48 3 13.3595613943 9.1519625559 3.5398269199
49 3 12.1381429296 8.1926229353 3.8826525091
50 2 9.3790253330 7.3353186768 16.5223784409
51 3 9.2194098156 7.2418686375 17.3400442223
52 3 9.8483770890 8.1006057246 16.3958361162
53 2 1.2552617755 19.5038667572 6.3640935864
54 3 0.4207497310 19.9770534241 6.1212688690
55 3 1.6465193712 19.1146951969 5.5647312789
56 2 6.6319584568 1.5203812305 -2.1330108747
57 3 6.3577706543 0.5530047223 -2.1923900124
58 3 6.9302859030 1.6170236793 -1.2310413941
59 2 -3.0218210815 4.7448805542 8.3630962829
60 3 -3.3325493080 4.2021964413 9.0914590766
61 3 -2.3592940363 5.2962503302 8.8467817104
62 2 4.4447945338 3.3327353933 0.8731345974
63 3 3.9708880213 2.8733959531 1.5802325764
64 3 3.6671309518 3.6233629329 0.2873784300
65 2 -0.7522024300 9.5283500338 1.5600279222
66 3 -0.7858133986 8.6867124102 1.0401370698
67 3 0.3140108869 9.7589639467 1.4378474893
68 2 3.4325226499 2.3090295432 4.5614154725
69 3 3.1863239623 1.3345110186 4.5910150835
70 3 2.5394542553 2.7684768228 4.5782167570
71 2 -1.6115096494 -10.1458106331 3.9882413790
72 3 -1.1177798612 -9.8226456032 3.2338903328
73 3 -2.5073424693 -10.2674632167 3.5894475475
74 2 0.0888797508 -5.5459607284 1.8660424061
75 3 0.8872427348 -5.9040327591 1.3728693916
76 3 -0.6837361042 -5.9229478535 1.3842417581
77 2 -2.6727410675 -4.9389063745 -5.5843908319
78 3 -3.0203708291 -4.5347370149 -6.3785159825
79 3 -1.7904945429 -4.4650159612 -5.4477209386
80 2 10.3969364420 3.3758146984 -5.1389356020
81 3 9.9295963744 3.5942487986 -6.0190568628
82 3 9.7966423739 2.7116262531 -4.6886091134
83 2 -7.7887350023 1.1350605660 11.2974752402
84 3 -7.2808705648 0.9547756696 10.4639285984
85 3 -7.3598676207 0.5415773177 11.9880100252
86 2 2.0781654403 6.9840986194 10.3065614213
87 3 1.0878252265 7.2007738125 10.2735127631
88 3 2.2295653185 6.8056025937 11.2878018659
89 2 -0.5385769835 6.2890327856 13.6427434620
90 3 -0.4194376203 6.4149847406 14.6255845313
91 3 -0.9665134931 7.1916400651 13.4278647605
92 2 8.5679868173 6.7487405637 0.3160185046
93 3 8.8149144259 6.0321793281 0.9386866539
ITEM: TIMESTEP
4
ITEM: NUMBER OF ATOMS
93
ITEM: BOX BOUNDS pp pp pp
0 9.494431
0 9.494431
0 9.494431
ITEM: ATOMS id type x y z
1 4 4.4155435726 5.6028194671 -2.1718023823
2 2 2.3154785858 -2.9851251553 3.6227044933
3 3 1.3798569377 -3.2305678437 3.6228824080
4 3 2.7068419844 -3.4003281060 4.4304577899
5 2 -4.4974217357 6.5172174505 -4.4595091606
6 3 -3.8581450462 5.8399986018 -4.7697422918
7 3 -3.9300801234 7.2760101160 -4.2645131219
8 2 5.8430463206 7.8052797107 0.0865142701
9 3 6.9125962036 7.5312479184 0.2634471317
10 3 5.3629979178 7.0971220020 0.5556365888
11 2 5.8454909321 11.5908922828 3.2979214178
12 3 5.0167902867 11.7953717525 3.8138003652
13 3 6.5323665918 12.2482148091 3.6354696807
14 2 11.6086053119 -4.1963343205 6.1332775006
15 3 11.1139747208 -3.5012751247 6.5890688979
16 3 10.8961011654 -4.7725216524 5.7048609050
17 2 12.2830698884 0.7852554494 8.5238491793
18 3 11.5908592009 0.6421124758 7.7947659525
19 3 12.6869000767 1.6319830297 8.2927431501
20 2 8.3981653890 1.6766458016 5.4604973278
21 3 8.1789072533 0.8533408091 4.9765422856
22 3 7.7949345444 1.6786461651 6.2652169748
23 2 2.1449988560 4.3603131566 9.2795399612
24 3 1.9707849137 5.3549577595 9.5947358536
25 3 1.6666966469 4.3003912506 8.3977865239
26 2 16.9002710761 2.3025044779 0.5669822137
27 3 17.3480404150 1.5788311979 0.8103348351
28 3 16.1498439961 2.3614770449 1.1714872370
29 2 3.4640628293 -1.9080454201 -1.4197166522
30 3 3.0191988479 -1.9636674703 -0.5552999392
31 3 3.7623683126 -0.9684359009 -1.4966458678
32 2 14.8831305631 -0.4616243980 -6.7257614095
33 3 15.0429679364 0.4868906284 -6.6077861577
34 3 14.9294236163 -0.6096094363 -7.6955242245
35 2 4.2680130008 2.9823862482 -2.3110035406
36 3 5.1813209977 2.6407099295 -2.3207907993
37 3 3.8943856073 2.8339258035 -3.1886227693
38 2 6.5433509176 -1.1723866240 6.8216402249
39 3 6.0906799987 -1.3992102225 7.7291149152
40 3 7.4197653518 -1.5869264682 6.8844461197
41 2 -0.1354773959 3.9041840421 7.5510718020
42 3 -0.5736457119 3.7583420295 6.6860525338
43 3 -0.8494431234 3.7517487576 8.1757223509
44 2 5.0276282055 -3.6093879066 1.8675117280
45 3 4.4754934215 -3.3730951994 2.6508229900
46 3 4.7184154922 -4.4659583511 1.5411001224
47 2 12.4446625490 9.1421817399 3.9717745634
48 3 13.3483786158 8.9680911028 3.6039121121
49 3 12.1005281868 8.1848284885 3.9813653422
50 2 9.3538295353 7.2978906785 16.4476399990
51 3 9.2577470181 7.0674195822 17.3465917461
52 3 9.7745549821 8.1474572031 16.4696731331
53 2 1.2600277524 19.5039436899 6.3718482847
54 3 0.4639833178 19.9641801416 6.0097278902
55 3 1.6319597577 19.0075869592 5.6623443663
56 2 6.6509916922 1.5109621330 -2.1785025223
57 3 6.7033430728 0.5384431967 -2.4205446894
58 3 6.7960954437 1.6651275842 -1.2370165086
59 2 -2.9672747366 4.7515338980 8.3896166536
60 3 -3.3734502152 4.2118897715 9.1027700811
61 3 -2.3805906160 5.4881181769 8.7612490268
62 2 4.4122966298 3.3645241403 0.9058225340
63 3 4.1620535288 2.7901048150 1.6532331172
64 3 3.6032747529 3.5051538529 0.3163248672
65 2 -0.7235846046 9.6319205506 1.5834876814
66 3 -0.7288521841 8.7195145454 1.1678520465
67 3 0.2110250406 10.1332429873 1.6850738049
68 2 3.3809405437 2.3720170076 4.5389136947
69 3 3.0751361760 1.4266104732 4.6200940457
70 3 2.5196659263 2.8826809547 4.3661695394
71 2 -1.5338243077 -10.1090157616 3.9819990188
72 3 -1.1182537959 -9.8587233430 3.1705114203
73 3 -2.4734643390 -10.0394525037 3.7068905409
74 2 0.1052618947 -5.5255638589 1.8540992142
75 3 0.8263041543 -5.8249031662 1.1822559681
76 3 -0.7157635776 -5.9181993190 1.4896207800
77 2 -2.6365234303 -4.9438081786 -5.6802043145
78 3 -2.9431271281 -4.5627955572 -6.5036815746
79 3 -1.7764487974 -4.4458217824 -5.4799682130
80 2 10.4179736123 3.4093006429 -5.1210033359
81 3 10.1390141424 3.5577416918 -6.0865889395
82 3 9.7191833497 2.7825401263 -4.7611183132
83 2 -7.7970263029 1.0977949754 11.2567746989
84 3 -7.3338057392 0.9708362744 10.3992051673
85 3 -7.3156651965 0.5884070581 11.9811273583
86 2 2.1044444763 6.9904822364 10.3177872490
87 3 1.1522250540 7.1099780220 10.1374230389
88 3 2.2431934872 6.7512260793 11.2863278088
89 2 -0.5409351897 6.2822195383 13.7417399016
90 3 -0.2758371800 6.4393731201 14.6729834351
91 3 -1.0208501992 7.1435076810 13.4921579639
92 2 8.5584591583 6.7149326881 0.3757506463
93 3 8.8610576938 6.1307196692 1.0688802743
ITEM: TIMESTEP
5
ITEM: NUMBER OF ATOMS
93
ITEM: BOX BOUNDS pp pp pp
0 9.494431
0 9.494431
0 9.494431
ITEM: ATOMS id type x y z
1 4 4.4117644500 5.6131760390 -2.1653022001
2 2 2.3473781072 -3.0221294479 3.6242174715
3 3 1.4012171848 -3.2436483839 3.7205001751
4 3 2.6496933430 -3.3641121266 4.5037915559
5 2 -4.4544835488 6.5280569237 -4.4233955632
6 3 -3.8604424085 5.8138931031 -4.7659898287
7 3 -3.8797235153 7.3165777415 -4.2545872411
8 2 5.8542441309 7.8205344056 0.1245215915
9 3 6.8691841693 7.4119276357 0.3583221835
10 3 5.3042738390 7.1607518838 0.5563118377
11 2 5.7976110593 11.5397642369 3.2488997593
12 3 5.0353235826 11.8360341596 3.8175621092
13 3 6.4918526282 12.2686731084 3.3829585959
14 2 11.5616072186 -4.2141291899 6.0999932384
15 3 11.0483849869 -3.4510295929 6.4138656863
16 3 10.9167449065 -4.8803305960 5.7203614487
17 2 12.2902733173 0.7829071899 8.5139977427
18 3 11.5789827889 0.7190916891 7.7829487448
19 3 12.7044819734 1.6073964921 8.2817927727
20 2 8.3886309054 1.7429833452 5.4561375936
21 3 8.0723938639 0.9788645092 4.9478538213
22 3 7.7917063029 1.8344543590 6.2529389021
23 2 2.1146363312 4.3345103850 9.2619025020
24 3 2.1815158794 5.3453051122 9.5183097967
25 3 1.5053001759 4.1981281992 8.4634386750
26 2 16.8818980193 2.3266305689 0.5732321577
27 3 17.3581516354 1.6546734979 0.8858253993
28 3 16.1234903021 2.2966652749 1.1884269247
29 2 3.4659441682 -1.9057411073 -1.4159799027
30 3 3.1083572210 -1.9745791866 -0.5388415671
31 3 3.7368470535 -0.9619969563 -1.4000721227
32 2 14.8552886574 -0.4999728633 -6.7442459005
33 3 15.0140985071 0.4468110134 -6.6902472405
34 3 14.9858165728 -0.7582703049 -7.6758475072
35 2 4.2430658920 3.0324245631 -2.3288887186
36 3 5.0700958892 2.5077060400 -2.3554625634
37 3 3.8928087811 2.8374817297 -3.2182659718
38 2 6.5683929377 -1.1642863848 6.8605994883
39 3 6.0683277537 -1.3814805401 7.7758683194
40 3 7.3821334826 -1.6708774298 6.9130577770
41 2 -0.1859223121 3.9369271557 7.5923274482
42 3 -0.4261546600 3.5788571458 6.7003070996
43 3 -0.9365995585 3.7137554662 8.1364304902
44 2 5.0390964147 -3.6435158527 1.9333962902
45 3 4.4990693220 -3.4410381936 2.7188282511
46 3 4.7074340662 -4.5117629640 1.6331462934
47 2 12.4349388556 9.1194568498 3.9958794133
48 3 13.3431141325 8.9666551581 3.6266518367
49 3 11.9760653510 8.2208186649 3.9812931107
50 2 9.3354132733 7.2692639229 16.3891447819
51 3 9.3100809796 6.7736508927 17.4326454285
52 3 9.6915890232 8.1766197837 16.5743442615
53 2 1.2388774384 19.4883976058 6.3755896383
54 3 0.4530172949 19.9452446942 5.9903193429
55 3 1.7431419754 19.0781094976 5.6862083231
56 2 6.6701778864 1.5068652974 -2.2048949627
57 3 6.6731149125 0.5041968427 -2.2663806439
58 3 6.8276608814 1.6430694355 -1.2426933861
59 2 -2.9176645385 4.7736254381 8.4039282304
60 3 -3.2584644162 4.2531863340 9.1959562366
61 3 -2.3698172059 5.4673585839 8.9594948941
62 2 4.3920127038 3.3982434481 0.9340613148
63 3 4.3307692879 2.7360077355 1.6577508654
64 3 3.4758577950 3.4275856243 0.4938406458
65 2 -0.7065215234 9.7351687497 1.5982792661
66 3 -0.5535083957 8.8522587796 1.1690883527
67 3 0.2647424328 9.9457998896 1.6695469407
68 2 3.3405986637 2.4371860800 4.5331589963
69 3 3.0755867583 1.4981808720 4.5894462424
70 3 2.4736092902 2.8774422891 4.2380673104
71 2 -1.4619702098 -10.0723810519 3.9708986984
72 3 -1.2110233918 -9.7853276365 3.1293682349
73 3 -2.4353864343 -10.0888537537 3.8696435860
74 2 0.1228303261 -5.5174637400 1.8289101126
75 3 0.7195376258 -5.5757222968 0.9821564146
76 3 -0.6959252374 -5.9974255597 1.6395389696
77 2 -2.5994973581 -4.9380115623 -5.7696786274
78 3 -2.9140571368 -4.5543232624 -6.6090249141
79 3 -1.7444862740 -4.4365679746 -5.5606010730
80 2 10.4235101801 3.4452653053 -5.1089349379
81 3 10.2153484135 3.6777273948 -6.0746432962
82 3 9.6697679995 2.8455854158 -4.8399900989
83 2 -7.7812714240 1.0788602449 11.2153965274
84 3 -7.4244993691 0.8648916409 10.3334653977
85 3 -7.2186632975 0.5503215034 11.8690863460
86 2 2.1088132800 6.9885974774 10.3158119051
87 3 1.1337708241 7.0187106486 10.2318910216
88 3 2.2794277443 6.8316394441 11.2855037735
89 2 -0.5218376291 6.2728843338 13.8391573404
90 3 -0.3179353223 6.4516234265 14.7731957759
91 3 -0.9616126861 7.1720082610 13.6272124324
92 2 8.5791023326 6.7237832916 0.4166375870
93 3 8.7440947940 6.0575604448 1.0623578834
ITEM: TIMESTEP
6
ITEM: NUMBER OF ATOMS
93
ITEM: BOX BOUNDS pp pp pp
0 9.494431
0 9.494431
0 9.494431
ITEM: ATOMS id type x y z
1 4 4.4216286671 5.5875783594 -2.1908201822
2 2 2.3509522877 -3.0707952195 3.6357120363
3 3 1.3826803068 -3.1872458767 3.7162907030
4 3 2.7444684256 -3.4084538376 4.4711636970
5 2 -4.4107607598 6.5154131713 -4.3860084645
6 3 -3.7356021238 5.9097729962 -4.8116920192
7 3 -3.8608854355 7.3109933537 -4.0932115640
8 2 5.9276685080 7.8312582818 0.1843341988
9 3 6.8777813957 7.4092281497 0.3845143436
10 3 5.2988728321 7.1667026345 0.4505445447
11 2 5.7417753852 11.5154457282 3.1994840059
12 3 4.9475607799 11.8291275319 3.7050310849
13 3 6.4231282761 12.2510041248 3.3195309855
14 2 11.5337836157 -4.2161243306 6.0860958867
15 3 10.8194042765 -3.5726887019 6.3182313665
16 3 11.0497165242 -4.9118137644 5.5750337694
17 2 12.3013181778 0.8106427085 8.5180955697
18 3 11.6008789650 0.7335563470 7.7880411810
19 3 12.8303799338 1.5555926017 8.2668301678
20 2 8.4179845185 1.8276710709 5.4308275147
21 3 8.1037600520 1.0989905654 4.8737249163
22 3 7.7058238053 1.8900725710 6.1392659696
23 2 2.0826532076 4.3012635024 9.2447057047
24 3 2.1707086779 5.3088880250 9.4087014615
25 3 1.3783468080 4.2557126889 8.5142252583
26 2 16.8684752345 2.3367055796 0.5978748933
27 3 17.3419157429 1.5462789715 0.8609846173
28 3 15.9864288619 2.2847413745 1.0379080089
29 2 3.4764241352 -1.9088444591 -1.4123395428
30 3 3.0152755694 -2.0620509751 -0.6112012470
31 3 3.5287245918 -0.9417346675 -1.4481593079
32 2 14.8193772320 -0.5440963462 -6.7543291596
33 3 15.1477044007 0.3578021879 -6.8163242594
34 3 15.0975400402 -0.9676948219 -7.5777904715
35 2 4.2154502705 3.0799885122 -2.3524044543
36 3 4.9667713814 2.4661845664 -2.3142820104
37 3 3.7484051871 2.9222059466 -3.1977864999
38 2 6.5829065899 -1.1786402482 6.9172485100
39 3 6.1647148818 -1.5139011071 7.8579919453
40 3 7.4668910037 -1.5677411180 6.8866713067
41 2 -0.2370207396 3.9660854607 7.6332219247
42 3 -0.2380845894 3.4072883232 6.8357306056
43 3 -1.1266478265 3.8934539352 8.0205382648
44 2 5.0411069376 -3.6878939977 2.0045376124
45 3 4.5328744541 -3.3771917809 2.7499601762
46 3 4.6436598612 -4.5293752431 1.6956065409
47 2 12.4160586892 9.0982588095 4.0255614763
48 3 13.3132093987 8.9472644457 3.6159139332
49 3 12.0368448752 8.1718695231 3.8662415224
50 2 9.3334092964 7.2187911970 16.3960700658
51 3 8.9514223669 6.7617136429 17.5734716310
52 3 9.7592079479 8.1620415228 16.5461033076
53 2 1.2040132377 19.4537102064 6.3895296919
54 3 0.4271636105 19.9076004306 5.9881054579
55 3 1.8178628293 19.2626080033 5.6488023978
56 2 6.6595794935 1.5039320291 -2.1730987196
57 3 6.5401842504 0.5256879631 -2.2668335451
58 3 6.9618703846 1.7854491504 -1.2643052687
59 2 -2.8570906081 4.8221745142 8.4644501178
60 3 -3.2131658165 4.1251257220 9.0853915159
61 3 -2.1620289910 5.4378390338 8.8729288963
62 2 4.3785498694 3.4267601278 0.9560034117
63 3 4.4713654318 2.7427916423 1.6564932330
64 3 3.4124023634 3.4651545908 0.6597447353
65 2 -0.6683778721 9.7947159513 1.5731467911
66 3 -0.9230441800 8.9831048063 1.0829398328
67 3 0.2540538489 10.1044242677 1.6775142237
68 2 3.3277428933 2.4910076165 4.5383558322
69 3 3.1948248891 1.5448989671 4.4963347017
70 3 2.3907223605 2.8878975459 4.4357691766
71 2 -1.4123784407 -10.0404043917 3.9634823834
72 3 -1.2428641603 -9.6934219402 3.1448946857
73 3 -2.3418781591 -10.3317265542 3.9275878048
74 2 0.1374282301 -5.5066892115 1.8147339775
75 3 0.6590506691 -5.3460408892 0.9476988687
76 3 -0.6035808911 -6.0870163446 1.5684352671
77 2 -2.5578624501 -4.9397420063 -5.8720011765
78 3 -2.9575372793 -4.3751399558 -6.5951689245
79 3 -1.7055285971 -4.4675573026 -5.6203971300
80 2 10.3987526019 3.4797304324 -5.1150874766
81 3 10.1392145676 3.9022905729 -5.9969784429
82 3 9.6705934410 2.8425359021 -4.8985535483
83 2 -7.7357029978 1.0419319839 11.1603891433
84 3 -7.4191517231 0.8831301180 10.2532047605
85 3 -7.1885040835 0.4971450828 11.8040556124
86 2 2.0701481174 6.9813215657 10.3150932281
87 3 1.0696296801 6.9194223818 10.2891079234