Comment line
     110 atoms
4 atom types
0 10.4996808451 xlo xhi
0 10.4996808451 ylo yhi
0 10.4996808451 zlo zhi

Masses

1 27
2 15.9999
3 1.0
4 22.99

Atoms

1 1 4 0 -0.0133180010 4.1989026215 1.4770990648
2 2 4 0 3.7597423019 0.5253335722 0.0186626957
3 3 2 0 3.7669098754 -0.7566332158 2.8438781726
4 4 3 0 3.0131967884 -0.2117284160 2.5489866499
5 5 3 0 4.4235476230 -0.2615861596 3.3788302559
6 6 2 0 0.9446008397 6.6056412981 11.5366085959
7 7 3 0 1.4339269403 6.8002888419 12.4383700065
8 8 3 0 1.5498413608 6.8416871653 10.8447400859
9 9 2 0 -3.2713371733 -3.3036606432 5.8020369888
10 10 3 0 -2.9049255331 -3.8045518300 6.5020975640
11 11 3 0 -2.5917308266 -3.0183714024 5.1029064635
12 12 2 0 2.5005252598 6.9582922812 3.6716070143
13 13 3 0 3.0782817402 6.2081702604 3.3853166636
14 14 3 0 2.9210245760 7.8498481143 3.6050702702
15 15 2 0 -4.2742920070 6.5961502105 2.3486603412
16 16 3 0 -5.2323334118 6.4574301652 2.4617274987
17 17 3 0 -4.1400620143 7.5727356654 2.4712139678
18 18 2 0 4.4899814021 1.6484479188 8.4639314164
19 19 3 0 4.7330258644 2.5416701060 8.1178521580
20 20 3 0 4.9656303258 1.1227973475 7.7993373678
21 21 2 0 -2.7273847366 7.7205265007 9.3888096012
22 22 3 0 -1.7800083882 7.4832723211 9.2661204051
23 23 3 0 -2.8186766010 7.4606850165 10.3152799298
24 24 2 0 5.1105462432 4.4657619432 8.2335014969
25 25 3 0 4.5734080725 5.0347616477 7.6475419347
26 26 3 0 4.8428002231 4.7450242048 9.0991064685
27 27 2 0 3.7738585313 3.2109867547 5.6175130741
28 28 3 0 4.1262493480 4.0371397056 6.0132736870
29 29 3 0 4.4058020096 2.4207805313 5.4957511315
30 30 2 0 -1.3049241189 2.2068151017 6.2186156921
31 31 3 0 -0.3550401969 1.9167822627 6.1289631619
32 32 3 0 -1.6027246249 1.5923367783 7.0047913848
33 33 2 0 2.3276554249 7.6035670045 -3.1321098811
34 34 3 0 2.7572631975 7.2948842131 -2.3012235305
35 35 3 0 2.9358407092 7.4253163173 -3.8597392333
36 36 2 0 2.2568565991 -0.4331645667 8.6033782049
37 37 3 0 1.2939283567 -0.3727372232 8.9169391688
38 38 3 0 2.3511942505 -1.3208803349 8.0952530397
39 39 2 0 1.5564663820 1.6056863194 6.7613287402
40 40 3 0 2.3365392996 2.0410728250 6.3520073522
41 41 3 0 2.0090603903 0.9261145249 7.3462955886
42 42 2 0 -4.2592847277 9.7196525583 -3.6118537610
43 43 3 0 -3.8604048330 9.0125718859 -4.1752134816
44 44 3 0 -3.5376173226 10.2352232576 -3.1547729421
45 45 2 0 -5.9293916873 -4.3660110612 5.8602889304
46 46 3 0 -6.3752670236 -4.3336862881 4.9911133085
47 47 3 0 -5.0058445863 -4.1485861515 5.6795054763
48 48 2 0 7.8208360204 4.7928325238 7.2661814907
49 49 3 0 7.9734528339 3.8230344089 7.1344730122
50 50 3 0 6.9453518211 4.8184332956 7.6907134706
51 51 2 0 7.4723258997 2.0617546486 3.7365078142
52 52 3 0 7.6263162333 3.0235793309 3.5785958850
53 53 3 0 8.1638033729 2.0240521797 4.4473958037
54 54 2 0 -3.3203828614 1.8411789854 0.6277099488
55 55 3 0 -2.4541474497 1.7179387051 1.0152542712
56 56 3 0 -3.9145915858 2.3035299278 1.2135124251
57 57 2 0 5.3606898745 9.3438619504 -0.6264172141
58 58 3 0 6.1257917641 9.0943352280 -0.0234546323
59 59 3 0 5.7454398324 8.9408900714 -1.4174798755
60 60 2 0 7.8695640859 4.7372567777 3.6476800363
61 61 3 0 7.6392753401 5.5189956538 4.2076185671
62 62 3 0 7.5686798188 5.0400099337 2.7845513836
63 63 2 0 10.9402375522 4.8399612758 14.2164957610
64 64 3 0 11.2811803147 5.6659559857 14.5436953201
65 65 3 0 10.0794777851 4.6285793100 14.7331454754
66 66 2 0 1.3622105450 9.5037571172 5.0386664592
67 67 3 0 1.9848441855 9.6305804849 4.3338873651
68 68 3 0 1.3187204107 10.2565697651 5.6174552024
69 69 2 0 7.9387505560 11.5590889723 8.5536170630
70 70 3 0 7.3043656067 11.8451999300 9.2782496642
71 71 3 0 8.6105646476 10.9858246670 9.0637008222
72 72 2 0 18.7897609133 4.3136610099 0.3641052546
73 73 3 0 18.8920571204 4.7081628405 -0.5053946272
74 74 3 0 18.3121098869 3.4647275467 0.2531237809
75 75 2 0 -0.9646300747 -2.6752680072 4.3217394143
76 76 3 0 -0.9663477982 -2.1175210440 3.4851747191
77 77 3 0 -0.3288895472 -2.1517273943 4.8340987071
78 78 2 0 7.1106849324 9.3867181152 1.7044980706
79 79 3 0 8.0874473335 9.2635577754 1.7729044805
80 80 3 0 6.9755366014 10.3622276642 1.4142233491
81 81 2 0 3.3488794776 7.0213680823 -0.7217199317
82 82 3 0 3.8910668231 6.2830654901 -0.2783802710
83 83 3 0 3.8314254166 7.8359719057 -0.5633038631
84 84 2 0 0.6864810871 14.0154930344 8.9622635076
85 85 3 0 0.8858175775 13.5143218187 8.1505148513
86 86 3 0 0.5978268133 14.9470389177 8.6483689400
87 87 2 0 -0.1529018485 6.3124288830 8.4498578635
88 88 3 0 -0.6955110729 5.9261775432 7.7433054136
89 89 3 0 0.5787361204 6.7427807653 7.9882066972
90 90 2 0 5.2311893609 1.0304355675 4.7162461221
91 91 3 0 6.0976368106 1.2990795709 4.3701106821
92 92 3 0 5.4963639406 0.3879252698 5.4532244700
93 93 1 0 0.1346659958 0.2585363666 1.1249816915
94 94 1 0 3.8076442199 3.7815318417 1.5588900263
95 95 2 0 -0.8107946479 1.6811894140 1.7207241558
96 96 3 0 -1.1005779643 1.4877675589 2.6588667589
97 97 2 0 0.0071464151 0.2040433023 -0.6610186837
98 98 3 0 0.2034651369 1.0705382471 -0.9948498690
99 99 2 0 -0.6370597235 -1.1777171297 1.8829984674
100 100 3 0 -0.4961731178 -2.0562618791 1.4795549686
101 101 2 0 1.7815699575 0.5283533389 1.7156357345
102 102 3 0 1.9714990427 1.4699276240 1.5916632260
103 103 2 0 4.5872451541 4.8124920663 0.3472939092
104 104 3 0 5.4988066565 4.9443497193 0.7325962106
105 105 2 0 2.2363867045 3.2182166693 1.0040312207
106 106 3 0 1.9513479452 3.1823176454 0.0389073116
107 107 2 0 3.7944775404 4.6894197742 3.0970439246
108 108 3 0 3.6550068691 4.2153552368 3.9415911032
109 109 2 0 4.8321744275 2.4025071260 1.8065043158
110 110 3 0 4.8338667445 2.2111939295 2.7430210428
