 Comment line
 
      9 atoms
       4 atom types
 
-34 34 xlo xhi
-34 34 ylo yhi
-34 34 zlo zhi

Masses

1 27
2 15.9999
3 1.0
4 22.99

Atoms

1 1 4 0 0.0406423 -1.35492 -0.674839
2 2 2 0 -1.88458 -0.565622 0.305728
3 3 3 0 -1.31595 0.25036 0.0688023
4 4 3 0 -2.80345 -0.282455 0.335592
5 5 2 0 2.03118 -0.541683 0.198681
6 6 3 0 1.40412 0.250241 0.0360973
7 7 3 0 2.43255 -0.402398 1.06341
8 8 2 0 0.0421973 0.883207 -0.471782
9 9 3 0 0.0532873 1.76327 -0.861692
