Comment line
      96 atoms
4 atom types
0 9.8499999999999996E+00 xlo xhi
0 9.8499999999999996E+00 ylo yhi
0 9.8499999999999996E+00 zlo zhi

Masses

1 27
2 15.9999
3 1.0
4 22.99

Atoms

1 1 2 0 6.7097858609 7.6651267004 14.3526235265
2 2 3 0 7.1063914502 8.3457063801 15.0379851528
3 3 3 0 5.8045377894 7.5636277166 14.7161252371
4 4 2 0 2.0430655692 6.1721570994 12.6550583419
5 5 3 0 1.9561495262 5.5660132164 11.9026206453
6 6 3 0 1.3601473728 6.8228754499 12.4359758755
7 7 2 0 -5.3710782224 6.5532139157 -0.9298573039
8 8 3 0 -4.5248805381 6.8714821554 -0.4378247860
9 9 3 0 -5.3353087814 6.8196520300 -1.8855368589
10 10 2 0 13.2867083533 14.0413570742 9.5397471350
11 11 3 0 13.5419576833 14.0111295036 10.4412567336
12 12 3 0 13.7699848742 14.8784554123 9.2218316022
13 13 2 0 0.8455467051 -5.8681404823 10.9180091197
14 14 3 0 1.3344151581 -6.0704947413 10.1005600381
15 15 3 0 1.1234627914 -6.6181549431 11.6246812996
16 16 2 0 -5.6703311497 7.4276366087 -3.7034816616
17 17 3 0 -6.4588020604 6.8557602035 -3.8809686372
18 18 3 0 -6.1021435105 8.2305765702 -3.4871529332
19 19 2 0 7.4410964621 -2.3392240728 8.1041584959
20 20 3 0 7.2692422843 -1.4017390388 8.0078411416
21 21 3 0 7.0548077559 -2.7184220914 8.9637846742
22 22 2 0 -1.6114169358 4.4538216119 1.6667959750
23 23 3 0 -0.7608008512 4.1988957519 1.3916691675
24 24 3 0 -2.1945824655 3.7850788741 1.3382749135
25 25 2 0 20.7344439006 -10.0362609121 14.2941927969
26 26 3 0 20.1831585175 -10.6099718710 14.8768060694
27 27 3 0 20.4558505170 -10.4420357692 13.4631987536
28 28 2 0 1.9507414690 -4.4118415488 5.4391531052
29 29 3 0 2.0700336908 -4.2603520316 4.4604197218
30 30 3 0 2.4613195806 -5.2139737594 5.6858905763
31 31 2 0 14.5684494844 4.5841409216 2.2866445088
32 32 3 0 14.4505074580 4.3682811665 3.2482897592
33 33 3 0 15.1554671435 5.3678600074 2.3290182010
34 34 2 0 1.1806607034 -0.3816652365 -10.7002234988
35 35 3 0 0.4109714770 0.0661165648 -11.1715129759
36 36 3 0 1.1276756092 -1.3789936823 -10.7886278085
37 37 2 0 8.5371067050 -4.6115238404 4.4329364368
38 38 3 0 8.6877703863 -4.9026740872 3.5215911363
39 39 3 0 8.9694547577 -3.7149964598 4.6031977662
40 40 2 0 7.3331322580 -0.7968346470 12.1569133401
41 41 3 0 6.9198880777 -1.3306971584 12.9421015803
42 42 3 0 7.0387421126 0.1278775393 12.0850158797
43 43 2 0 11.1108935134 6.6673069723 8.3588544995
44 44 3 0 12.0009471692 6.4419590650 8.6756687343
45 45 3 0 10.5959969227 5.8921575553 8.5678971668
46 46 2 0 2.0158602636 12.0895486416 2.7142047956
47 47 3 0 1.7350126042 11.2966231863 3.2041505275
48 48 3 0 2.6856685119 11.7374739419 2.1350724131
49 49 2 0 -3.2671354763 16.4119112819 20.3993471477
50 50 3 0 -2.4242082686 15.8596762562 20.5600865734
51 51 3 0 -3.1224005470 17.1639756759 21.0215129759
52 52 2 0 2.9994380100 0.1853529127 -3.1630189661
53 53 3 0 2.1724191170 0.0871300251 -2.6360647319
54 54 3 0 2.6151473935 0.2429638954 -4.1068203260
55 55 2 0 -10.0777434639 17.2071956162 15.6935011836
56 56 3 0 -9.3776191308 16.7696197513 16.1771060453
57 57 3 0 -10.8844439006 17.1729802836 16.2777773246
58 58 2 0 -4.1349927836 20.8134567483 9.1135969800
59 59 3 0 -5.0424163332 21.0570172730 8.9424064220
60 60 3 0 -3.6345765073 21.6545424137 8.8915914883
61 61 2 0 14.4075604789 3.6878064882 5.0340094908
62 62 3 0 14.9625907898 4.3434019102 5.5321768187
63 63 3 0 13.8144035257 3.4295102360 5.7797762442
64 64 2 0 -0.5661395774 -8.8025987763 7.3691770996
65 65 3 0 -0.4016169778 -7.9318745367 7.0127034428
66 66 3 0 -1.5138161680 -9.0582196649 7.1725984902
67 67 2 0 7.3560151449 -6.3369243503 8.6655512680
68 68 3 0 7.2141779633 -5.6939453001 7.9155965592
69 69 3 0 8.1729259236 -6.7583451310 8.3727524303
70 70 2 0 12.8746231096 12.8470496460 -2.6631195771
71 71 3 0 12.9305170234 13.0822453214 -1.7238785877
72 72 3 0 12.8911314227 11.8872802283 -2.6196570741
73 73 2 0 -3.4635452878 5.2276644419 -3.3093771032
74 74 3 0 -3.5092625036 6.1605154487 -2.9198745879
75 75 3 0 -2.7249766148 5.1865627777 -3.9370015727
76 76 2 0 6.1257264888 11.6578880174 11.7675244315
77 77 3 0 5.8245282094 11.4600931974 10.8314995312
78 78 3 0 5.8314072712 12.5693110812 11.9000297223
79 79 2 0 3.2198159684 20.7086029344 10.4451236600
80 80 3 0 2.6466340029 20.0434126516 10.1083979380
81 81 3 0 3.7355364961 20.1496341918 11.1000784112
82 82 2 0 6.5964292375 -8.0510805200 4.5842228995
83 83 3 0 6.3951286814 -8.2450276019 3.5974275663
84 84 3 0 5.8300006843 -7.4602897220 4.7539603815
85 85 2 0 13.5432137220 -10.9394514131 2.7604348005
86 86 3 0 12.8858114625 -10.8293112658 3.4542943318
87 87 3 0 13.1630056054 -11.8045424137 2.4835868863
88 88 2 0 0.2177500710 3.7074544268 6.9263810844
89 89 3 0 0.3282492476 4.1542802642 6.0241377280
90 90 3 0 1.1169434959 3.4744059813 7.2848409841
91 91 2 0 -2.9291518068 0.0053503059 6.4241907448
92 92 3 0 -3.7466949470 0.3362516448 6.8711630700
93 93 3 0 -2.9171978179 0.5190046941 5.6172026371
94 94 2 0 19.9577113654 8.5365543285 2.0794588761
95 95 3 0 18.9944020322 8.7788138578 2.0693751466
96 96 3 0 20.2182986633 8.9446443929 1.2763904753
