 Comment line
 
      7 atoms
       4 atom types
 
-34 34 xlo xhi
-34 34 ylo yhi
-34 34 zlo zhi

Masses

1 27
2 15.9999
3 1.0
4 22.99

Atoms

1 1 1 0 -0.000615143 0.00108529 5.81429e-05
2 2 2 0 -0.852054 0.815759 -1.20309
3 3 3 0 -0.506075 1.54174 -1.71793
4 4 2 0 1.57889 0.45477 0.368322
5 5 3 0 2.12209 0.0385363 1.03423
6 6 2 0 -0.727264 -1.26759 0.835707
7 7 3 0 -1.61497 -1.5843 0.682709
