 Comment line
 
      10 atoms
       4 atom types
 
-34 34 xlo xhi
-34 34 ylo yhi
-34 34 zlo zhi

Masses

1 27
2 15.9999
3 1.0
4 22.99

Atoms

1 1 1 0 -0.00186144 0.000295222 0.000271444
2 2 2 0 1.33348 0.203779 -1.1359
3 3 3 0 -0.760021 -1.59038 -1.49116
4 4 2 0 -0.862221 1.54128 0.0164134
5 5 3 0 1.58362 1.11848 -1.2565
6 6 2 0 0.420418 -0.332753 1.68143
7 7 3 0 0.437505 -1.26747 1.88118
8 8 2 0 -0.898426 -1.41233 -0.562121
9 9 3 0 -1.25249 1.73909 0.866382
10 10 5 0 30.000 0.000 0.000
