 Comment line
 
      10 atoms
       4 atom types
 
-34 34 xlo xhi
-34 34 ylo yhi
-34 34 zlo zhi

Masses

1 27
2 15.9999
3 1.0
4 22.99

Atoms

1 1 1 0 -0.37501 0.288013 0.117788
2 2 2 0 -1.20509 1.09465 -1.1302
3 3 3 0 -1.01697 2.01209 -1.33977
4 4 2 0 0.82026 1.26525 0.865782
5 5 3 0 1.64241 1.03089 1.32623
6 6 2 0 -1.21438 -0.928683 0.991067
7 7 3 0 -2.16602 -0.992777 0.941539
8 8 2 0 0.873653 -1.0623 -0.697754
9 9 3 0 1.79138 -0.773266 -0.806829
10 10 3 0 0.84976 -1.93387 -0.267853
