 Comment line
 
       10 atoms
        3 atom types
 
  -10.0000000E+00   10.1583200000000      xlo xhi
  -10.0000000E+00   10.1583200000000      ylo yhi
  -10.0000000E+00   10.0202560000000      zlo zhi

 Masses

     1 27
     2 15.9999
     3 1.0
 
 Atoms
 
1 1 1  0.00611        0.01553        0.18603
2 2 1 -0.97567        0.91266       -1.08967
3 3 1 -0.71241        1.86602       -1.02804
4 2 1  0.90947        1.22891        1.22915
5 3 1  1.84669        0.91824        1.17363
6 2 1 -1.11467       -1.01071        1.22458
7 3 1 -2.02744       -0.66896        1.05026
8 2 1  1.20487       -1.09338       -0.67977
9 3 1  2.10803       -0.69932       -0.67205
10 3 1  1.25736       -1.97502       -0.20888
