 Comment line
 
      6 atoms
       4 atom types
 
  -23 23     xlo xhi
  -23 23     ylo yhi
  -23 23      zlo zhi

 Masses

     1 27
     2 15.9999
     3 1.0
     4 22.99
     5 35.45
 
 Atoms

1 1 2 0 -0.00876025 0.0164668 0.194255
2 2 3 0 0.941642 -0.0874912 -0.0154558
3 3 3 0 -0.392148 0.846657 -0.15481
4 4 3 0 -0.540733 -0.775632 -0.0239898
5 5 2 0 20.000 0.000 0.000
6 6 3 0 21.000 0.000 0.000
