 Comment line
 
      6 atoms
       4 atom types
 
  -34 34     xlo xhi
  -34 34     ylo yhi
  -34 34      zlo zhi

 Masses

     1 27
     2 15.9999
     3 1.0
     4 22.99
     5 30
 
 Atoms

1 1 2 0 0.470382 -0.546367 -1.27315
2 2 3 0 1.43381 -0.614774 -1.11908
3 3 3 0 0.285217 0.186511 -1.89383
4 4 3 0 0.034037 -0.29044 -0.361376
5 5 2 0 -0.803608 0.975593 2.18841
6 6 3 0 -1.41984 0.289476 2.45903
