 Comment line
 
      9 atoms
       4 atom types
 
  -23 23     xlo xhi
  -23 23     ylo yhi
  -23 23      zlo zhi

 Masses

     1 27
     2 15.9999
     3 1.0
     4 22.99
     5 35.45
 
 Atoms

1 1 3 0 -0.00799886 0.0432506 -0.0119649
2 2 2 0 0.773748 0.00953557 -0.916285
3 3 3 0 0.44445 0.150741 -1.81445
4 4 2 0 -0.810716 0.180871 0.86464
5 5 3 0 -0.643088 0.850487 1.54184
6 6 3 0 1.48612 -0.643635 -0.917431
7 7 3 0 -1.24251 -0.591248 1.25365
8 8 2 0 20.000 0.000 0.000
9 9 3 0 21.000 0.000 0.000
