 Comment line
 
      9 atoms
       4 atom types
 
  -34 34     xlo xhi
  -34 34     ylo yhi
  -34 34      zlo zhi

 Masses

     1 27
     2 15.9999
     3 1.0
     4 22.99
     5 30
 
 Atoms

1 1 2 0 -1.3515 0.0418816 0.001371
2 2 3 0 0.289176 0.0562206 0.003545
3 3 2 0 1.3485 0.0418816 0.001371
4 4 3 0 1.72104 -0.420907 0.772268
5 5 3 0 1.71891 -0.307354 -0.828165
6 6 3 0 -1.86419 0.220061 0.797178
7 7 3 0 -1.86193 0.368218 -0.747568
8 8 2 0 30.000 0.000 0.000
9 9 3 0 31.000 0.000 0.000
