 Comment line
 
      9 atoms
       4 atom types
 
  -34 34     xlo xhi
  -34 34     ylo yhi
  -34 34      zlo zhi

 Masses

     1 27
     2 15.9999
     3 1.0
     4 22.99
     5 30
 
 Atoms

1 1 2 0 -1.35003 0.000814571 -0.00826157
2 2 3 0 -2.74286e-05 0.000814571 -0.00826157
3 3 2 0 1.34997 0.000814571 -0.00826157
4 4 3 0 1.74496 -0.454832 0.749294
5 5 3 0 1.74284 -0.348932 -0.821289
6 6 3 0 -1.74491 0.289162 0.827514
7 7 3 0 -1.74282 0.51216 -0.730736
8 8 2 0 30.000 0.000 0.000
9 9 3 0 31.000 0.000 0.000
