 Comment line
 
      3 atoms
       4 atom types
 
-34 34 xlo xhi
-34 34 ylo yhi
-34 34 zlo zhi

Masses

1 27
2 15.9999
3 1.0
4 22.99

Atoms

1 1 4 0 -7.64023 0 0
2 2 2 0 3.33977 0 0
3 3 3 0 4.30045 0 0
