 Comment line
 
      6 atoms
       4 atom types
 
-34 34 xlo xhi
-34 34 ylo yhi
-34 34 zlo zhi

Masses

1 27
2 15.9999
3 1.0
4 22.99

Atoms

1 1 4 0 -0.311787 1.91202 -0.120663
2 2 2 0 0.0412073 -0.252935 0.015974
3 3 3 0 0.885504 -0.712932 -0.03973
4 4 3 0 -0.614925 -0.946152 0.144419
5 5 2 0 30.000 0.000 0.000
6 6 3 0 31.000 0.000 0.000
