 Comment line
 
      6 atoms
       4 atom types
 
  -33 33     xlo xhi
  -33 33     ylo yhi
  -33 33      zlo zhi

 Masses

     1 27
     2 15.9999
     3 1.0
     4 22.99
 
 Atoms

1 1 4 0 0 0 4.04261
2 2 2 0 0 0 -0.957391
3 3 3 0 0 0.761192 -1.54261
4 4 3 0 0 -0.761192 -1.54261
5 5 2 0 30.000 0.000 0.000
6 6 3 0 31.000 0.000 0.000
