 Comment line
 
      118 atoms
       4 atom types
 
 -0.165615 8.528385  xlo xhi
 0.083251 10.787109  ylo yhi
 0.081193 11.268873  zlo zhi
 3.756828 0.521757 3.155960 xy xz yz

Masses

1 27
2 15.9999
3 1.0
4 22.99

Atoms

1 1 1 0 11.667528 12.077405 7.498781
2 2 1 0 9.408620 3.487991 5.021668
3 3 4 0 3.211559 5.567938 9.199121
4 4 4 0 12.228771 11.456169 4.351187
5 5 4 0 6.395669 3.509978 5.905029
6 6 4 0 5.051197 1.505381 2.176360
7 7 4 0 4.973682 9.153635 2.640906
8 8 4 0 9.415934 7.028572 9.944774
9 9 4 0 8.124121 5.749997 2.672693
10 10 4 0 6.088724 13.198208 10.318272
11 11 4 0 5.242993 6.465317 0.994328
12 12 2 0 10.565211 11.230881 6.158352
13 13 2 0 6.153149 7.165712 5.409147
14 14 2 0 2.993164 7.729157 10.563470
15 15 2 0 9.748955 7.278920 1.550331
16 16 2 0 8.647278 2.472328 6.272618
17 17 2 0 6.521563 2.333092 8.265647
18 18 2 0 4.340568 1.980293 5.530318
19 19 2 0 8.975437 10.316774 3.479315
20 20 2 0 2.017911 2.390442 4.279167
21 21 2 0 4.322176 12.541894 8.691830
22 22 2 0 1.973516 4.333154 6.464113
23 23 2 0 8.187189 3.125687 3.679837
24 24 2 0 7.370894 5.052163 0.308684
25 25 2 0 1.380394 4.740809 10.254079
26 26 2 0 3.942801 2.928942 8.453638
27 27 2 0 6.425107 10.408671 3.978624
28 28 2 0 3.068491 5.931615 2.242723
29 29 2 0 5.134490 10.280363 6.337565
30 30 2 0 12.513342 11.207510 2.043340
31 31 2 0 9.382092 3.862415 1.486921
32 32 2 0 4.991240 9.291098 9.952088
33 33 3 0 9.669696 7.151402 0.576944
34 34 3 0 6.593014 7.930797 5.812099
35 35 3 0 2.240580 4.653180 0.319561
36 36 3 0 10.607474 6.722811 1.821396
37 37 3 0 10.432285 10.434799 9.382889
38 38 3 0 10.574514 13.235867 9.180232
39 39 3 0 8.238487 11.972321 4.882738
40 40 3 0 9.343884 10.124557 4.354111
41 41 3 0 2.846806 2.246903 4.825276
42 42 3 0 4.236471 12.076517 9.540460
43 43 3 0 2.941628 4.341514 6.532723
44 44 3 0 7.337433 3.640025 3.642549
45 45 3 0 8.276349 9.017082 11.123217
46 46 3 0 9.410859 4.749232 10.957188
47 47 3 0 4.094606 3.628201 7.776903
48 48 3 0 7.446051 10.343980 3.823752
49 49 3 0 6.210648 11.373021 4.007356
50 50 3 0 3.411416 6.407007 3.018476
51 51 3 0 3.783957 4.520850 1.905530
52 52 3 0 5.735483 10.072245 5.579503
53 53 3 0 5.088000 9.477174 6.898761
54 54 3 0 3.984699 10.735557 1.213301
55 55 3 0 9.942238 11.831604 5.714704
56 56 3 0 8.946173 3.523512 2.346958
57 57 3 0 8.626000 4.342646 1.003091
58 58 3 0 5.093228 8.797089 9.115061
59 59 3 0 3.685939 8.454038 10.374698
60 60 1 0 4.717522 6.624626 6.290111
61 61 1 0 10.202778 6.111214 5.795024
62 62 4 0 6.000181 12.464017 7.086252
63 63 4 0 11.155959 9.077735 6.465171
64 64 4 0 10.741312 9.437995 2.051559
65 65 4 0 8.525833 11.101278 7.520639
66 66 4 0 3.757835 4.200667 4.350651
67 67 4 0 7.956575 8.977450 1.678340
68 68 4 0 8.892747 4.192035 8.327549
69 69 4 0 5.917037 7.093844 10.813559
70 70 4 0 2.013547 1.942849 1.615644
71 71 2 0 9.901520 5.159546 4.166819
72 72 2 0 10.439916 6.881937 7.518423
73 73 2 0 4.523056 7.794748 7.627367
74 74 2 0 9.635712 10.617802 10.062743
75 75 2 0 3.299716 6.521466 5.280250
76 76 2 0 8.021498 8.880971 7.076660
77 77 2 0 3.786845 8.820263 0.376506
78 78 2 0 4.436831 3.753445 1.804393
79 79 2 0 4.869623 4.998605 6.971697
80 80 2 0 8.394420 5.397055 6.149834
81 81 2 0 5.932077 4.554843 3.668694
82 82 2 0 11.510281 10.388749 8.383883
83 83 2 0 9.476237 7.775351 5.164079
84 84 2 0 6.527079 7.448357 2.611609
85 85 2 0 3.469924 0.269256 0.794129
86 86 2 0 3.085127 8.705834 4.093189
87 87 2 0 7.020678 1.969117 1.053677
88 88 2 0 10.892219 13.408550 10.939769
89 89 2 0 6.892976 10.984001 9.451956
90 90 2 0 5.600174 5.276737 9.441303
91 91 2 0 7.580444 6.535135 8.446986
92 92 3 0 1.822000 5.263438 3.396417
93 93 3 0 9.628325 7.383652 7.672900
94 94 3 0 7.653784 8.169435 7.652532
95 95 3 0 9.704254 11.585511 10.147925
96 96 3 0 4.901428 2.641449 8.530616
97 97 3 0 8.521524 8.420289 6.331593
98 98 3 0 3.478170 7.944139 0.096692
99 99 3 0 5.170320 4.076700 2.503418
100 100 3 0 7.727147 5.904220 5.647209
101 101 3 0 3.619250 7.771999 7.987203
102 102 3 0 5.961188 5.525404 3.605360
103 103 3 0 3.603646 10.149624 8.924411
104 104 3 0 8.847661 7.742259 4.428918
105 105 3 0 6.402758 7.484106 3.580407
106 106 3 0 4.441638 3.696331 11.166140
107 107 3 0 3.328053 7.766666 4.524140
108 108 3 0 10.806656 8.567234 4.224361
109 109 3 0 7.342553 2.882094 1.082740
110 110 3 0 7.802540 1.408899 1.568634
111 111 3 0 7.339874 3.645039 11.143043
112 112 3 0 11.782351 12.892027 11.043124
113 113 3 0 7.698792 10.561476 9.801377
114 114 3 0 6.123116 10.321166 9.620246
115 115 3 0 5.262064 5.064330 7.916997
116 116 3 0 5.915876 4.405520 9.715298
117 117 3 0 7.787697 6.118678 7.560569
118 118 3 0 6.762251 6.014380 8.819162
