 Comment line
 
      118 atoms
       4 atom types
 
 0.271118 8.965118  xlo xhi
 0.063287 10.767145  ylo yhi
 -0.262087 10.925593  zlo zhi
 3.756828 0.521757 3.155960 xy xz yz

Masses

1 27
2 15.9999
3 1.0
4 22.99

Atoms

1 1 1 0 6.329104 2.254523 6.344451
2 2 1 0 8.237916 4.390997 5.050169
3 3 4 0 6.444331 5.696613 7.335654
4 4 4 0 4.225121 6.805441 3.046274
5 5 4 0 8.788686 7.139991 4.226392
6 6 4 0 1.013028 1.632788 5.159184
7 7 4 0 6.317709 2.892812 3.293972
8 8 4 0 11.961514 13.268175 10.566045
9 9 4 0 7.162775 10.702840 3.790839
10 10 4 0 7.198329 5.527608 1.677226
11 11 4 0 10.464750 7.185228 0.809766
12 12 2 0 5.231235 1.545241 4.916452
13 13 2 0 5.141377 6.048322 5.095171
14 14 2 0 3.659049 9.018094 6.647494
15 15 2 0 8.825829 3.222027 1.927964
16 16 2 0 7.703032 2.762067 5.334046
17 17 2 0 7.147243 2.678624 8.204154
18 18 2 0 9.703856 4.458620 4.034112
19 19 2 0 2.999473 5.125393 1.737148
20 20 2 0 3.657754 3.690342 4.182929
21 21 2 0 6.240863 10.628117 5.894618
22 22 2 0 7.181331 5.281099 3.979429
23 23 2 0 2.126197 1.564190 2.617591
24 24 2 0 10.052497 11.997301 10.443761
25 25 2 0 8.594179 5.256843 6.526153
26 26 2 0 6.745740 4.737370 9.689577
27 27 2 0 9.885862 8.422387 8.328945
28 28 2 0 3.658507 8.708170 10.446906
29 29 2 0 3.575612 10.094241 4.166809
30 30 2 0 3.232183 8.945271 1.801130
31 31 2 0 7.243061 10.739097 0.995372
32 32 2 0 4.178810 6.859259 8.085684
33 33 3 0 9.089638 3.784446 2.723755
34 34 3 0 6.248691 5.634801 4.473485
35 35 3 0 11.441316 8.943812 6.977916
36 36 3 0 0.925649 2.609527 1.982558
37 37 3 0 9.624155 4.534189 0.143577
38 38 3 0 10.460989 12.792367 8.883109
39 39 3 0 1.913724 4.181043 4.287710
40 40 3 0 2.159828 4.870028 2.155517
41 41 3 0 3.658611 4.165738 3.324261
42 42 3 0 6.728800 11.284344 6.416075
43 43 3 0 4.861408 6.197591 0.315641
44 44 3 0 2.658822 2.299242 2.966488
45 45 3 0 7.047784 3.596878 8.656835
46 46 3 0 2.325324 5.073580 11.158420
47 47 3 0 5.826932 4.394834 9.638619
48 48 3 0 9.032138 8.256767 7.769157
49 49 3 0 10.142988 7.462223 8.413207
50 50 3 0 3.269857 7.992382 9.915788
51 51 3 0 3.004135 5.264637 0.276815
52 52 3 0 3.552957 9.423950 3.416312
53 53 3 0 3.671404 9.651901 5.065095
54 54 3 0 3.938654 8.594323 1.232485
55 55 3 0 4.489450 2.149854 4.711747
56 56 3 0 2.923247 0.699104 1.547765
57 57 3 0 3.886624 0.634455 0.342519
58 58 3 0 3.633961 6.231535 7.511511
59 59 3 0 4.046950 7.713298 7.563392
60 60 1 0 4.238834 4.666327 5.606810
61 61 1 0 1.368061 4.775502 7.333909
62 62 4 0 9.475592 9.825471 1.739253
63 63 4 0 8.195936 6.227604 10.689831
64 64 4 0 5.223016 6.772633 10.222258
65 65 4 0 5.707777 8.279428 5.532418
66 66 4 0 6.359733 13.026148 10.131557
67 67 4 0 8.594249 10.047585 6.525558
68 68 4 0 8.742723 0.620486 1.989688
69 69 4 0 11.199001 10.493441 8.949690
70 70 4 0 5.344055 10.093231 8.049564
71 71 2 0 4.506608 11.548819 9.637896
72 72 2 0 1.496730 3.019998 7.586104
73 73 2 0 3.035730 5.863886 11.057644
74 74 2 0 9.487090 8.356013 11.058453
75 75 2 0 2.838142 5.225170 6.517022
76 76 2 0 7.821468 11.908543 7.883718
77 77 2 0 6.323930 1.289172 1.117243
78 78 2 0 5.347361 6.920012 0.747867
79 79 2 0 5.186673 3.613767 6.654864
80 80 2 0 7.825033 7.881186 6.832789
81 81 2 0 8.324868 7.687024 1.936703
82 82 2 0 10.519983 11.251637 6.839029
83 83 2 0 10.007968 5.803360 8.818834
84 84 2 0 1.242488 4.081988 11.001354
85 85 2 0 7.509689 10.614632 10.070065
86 86 2 0 2.321528 7.304164 4.844594
87 87 2 0 5.625352 3.722877 1.189054
88 88 2 0 6.308173 8.553428 3.154463
89 89 2 0 9.464102 9.912029 4.106481
90 90 2 0 6.877256 8.149313 9.262786
91 91 2 0 4.252356 3.807673 9.072242
92 92 3 0 4.745266 10.957015 10.364728
93 93 3 0 0.682675 2.579264 7.884422
94 94 3 0 7.205736 12.657825 7.787510
95 95 3 0 9.563694 8.435403 10.071037
96 96 3 0 9.164761 12.362344 10.328264
97 97 3 0 7.648051 11.439538 8.776192
98 98 3 0 6.290804 1.260228 0.102375
99 99 3 0 6.045274 7.192044 0.027194
100 100 3 0 8.229942 6.989196 6.710342
101 101 3 0 2.115705 5.904399 9.359198
102 102 3 0 8.046790 7.930460 1.039269
103 103 3 0 11.249142 10.908108 6.305271
104 104 3 0 2.630303 3.064078 0.768056
105 105 3 0 1.032688 4.423356 10.115656
106 106 3 0 8.454109 10.601945 10.303672
107 107 3 0 2.811641 7.939052 5.418793
108 108 3 0 2.438993 6.472269 5.387535
109 109 3 0 4.740771 4.029579 1.462511
110 110 3 0 5.903176 2.248400 1.209388
111 111 3 0 7.152125 8.157535 2.605427
112 112 3 0 5.724893 8.881397 2.451916
113 113 3 0 10.437922 9.805573 4.203776
114 114 3 0 9.343259 10.897326 4.394565
115 115 3 0 7.224333 9.036230 9.586144
116 116 3 0 7.253638 8.022947 8.329419
117 117 3 0 3.737720 4.625806 9.021828
118 118 3 0 4.600342 3.674463 8.100395
