 Comment line
 
      6 atoms
       4 atom types
 
-34 34 xlo xhi
-34 34 ylo yhi
-34 34 zlo zhi

Masses

1 27
2 15.9999
3 1.0
4 22.99

Atoms

1 1 3 0 -1.46287 0.951701 1.12e-05
2 2 2 0 -1.31794 0.0049592 1.2e-06
3 3 3 0 -0.274722 -0.0523348 5.2e-06
4 4 2 0 1.38206 0.0049592 1.2e-06
5 5 3 0 1.67348 -0.909285 -1.88e-05
6 6 5 0 30.000 0.000 0.000
