 Comment line
 
      6 atoms
       4 atom types
 
-34 34 xlo xhi
-34 34 ylo yhi
-34 34 zlo zhi

Masses

1 27
2 15.9999
3 1.0
4 22.99

Atoms

1 1 3 0 -1.53223 0.941587 -1e-06
2 2 2 0 -1.35 -6e-07 0
3 3 3 0 -4e-07 -6e-07 0
4 4 2 0 1.35 -6e-07 0
5 5 3 0 1.53223 -0.941586 1e-06
6 6 5 0 30.000 0.000 0.000
