 Comment line
 
      6 atoms
       4 atom types
 
-34 34 xlo xhi
-34 34 ylo yhi
-34 34 zlo zhi

Masses

1 27
2 15.9999
3 1.0
4 22.99

Atoms

1 1 3 0 0.216654 -0.117974 0.064022
2 2 2 0 0.943944 0.0262018 -0.803276
3 3 3 0 0.41913 -0.209077 -1.56924
4 4 2 0 -0.650111 -0.291449 1.03188
5 5 3 0 -0.929617 0.592299 1.27661
6 6 5 0 30.000 0.000 0.000
