 Comment line
 
      3 atoms
       4 atom types
 
-34 34 xlo xhi
-34 34 ylo yhi
-34 34 zlo zhi

Masses

1 27
2 15.9999
3 1.0
4 22.99

Atoms

1 1 2 0 -0.175491 0.340108 0.0637013
2 2 3 0 0.616292 0.005218 0.488747
3 3 3 0 -0.440801 -0.345326 -0.552449
