 Comment line
 
      6 atoms
       4 atom types
 
-34 34 xlo xhi
-34 34 ylo yhi
-34 34 zlo zhi

Masses

1 27
2 15.9999
3 1.0
4 22.99

Atoms

1 1 2 0 0.000280333 1.23383 0.0501515
2 2 3 0 -0.77161 1.60559 -0.382803
3 3 3 0 0.758843 1.60131 -0.409232
4 4 2 0 -0.00104267 -1.67686 -0.0870805
5 5 3 0 0.0147003 -2.0458 0.796924
6 6 3 0 -0.00117167 -0.718068 0.0320415
