 Comment line
 
       6 atoms
       2 atom types
 
  -4.0000000E+00   15      xlo xhi
  -4.0000000E+00   15      ylo yhi
  -4.0000000E+00   15      zlo zhi

 Masses

     1 15.9999
     2 1.0
 
 Atoms

1 1 0 0.0008774200 1.3946744900 0.0681811400
2 2 0 -0.7710134200 1.7664293700 -0.3647742900
3 2 0 0.7594396000 1.7621463800 -0.3912029000
4 1 0 -0.0004464000 -1.5160233400 -0.0690510600
5 2 0 0.0152972000 -1.8849613000 0.8149534500
6 2 0 -0.0005747200 -0.5572277000 0.0500710200 


