 Comment line
 
      3 atoms
       4 atom types
 
-34 34 xlo xhi
-34 34 ylo yhi
-34 34 zlo zhi

Masses

1 27
2 15.9999
3 1.0
4 22.99

Atoms

1 1 2 0 0.0000000000 0.0000000000 0.2044070700
2 2 3 0 0.6542503700 0.0000000000 -0.5095819300
3 3 3 0 -0.6542503700 0.0000000000 -0.5095819300
