 Comment line
 
      3 atoms
       4 atom types
 
-34 34 xlo xhi
-34 34 ylo yhi
-34 34 zlo zhi

Masses

1 27
2 15.9999
3 1.0
4 22.99

Atoms

1 1 2 0 0.0000000000 0.0000000000 0.0722753800
2 2 3 0 0.6756178800 0.0000000000 -0.4435160800
3 3 3 0 -0.6756178800 0.0000000000 -0.4435160800
