      18
 i =        1, time =        1.000, E =     -1092.0405259823
  O         6.2718102743         5.5342292588         5.6362099137
 Al         2.7345045363        -1.4277291681         1.0636819467
 Al        -2.7321328932         1.4301008113        -1.0743543408
  O         3.5384915595        -7.8880850717         7.6366908993
  O        -8.3742719147        -4.4397159514        -4.9674065492
  O         8.3671569853         4.4527599886         4.9602916198
  O        -3.5361199164         7.8774126776        -7.6473632934
  H        -4.1752777417        -1.1265304898        -1.5842576151
  H        -1.2368118956         3.4554840498        -3.9416708927
  H         1.2403693603        -3.4625989792         3.9594582162
  H         4.1740919201         1.1348312408         1.5878150798
  O         6.6038403134         5.2235440080        -5.0409274865
  O        -6.6002828486        -5.2235440080         5.0444849512
  H         1.3933403426        -3.5859244223         0.6782899370
  H        -1.3874112348         3.5752520281        -0.6759182939
  H        -5.0610864531         0.2751106038         1.8593682190
  O        -6.3002699919        -5.5354150804        -5.6136793039
  H         5.0812454198        -0.2691814960        -1.8795271856
      18
 i =        2, time =        2.000, E =     -1092.0363448448
  O         8.2307875049         6.6085835996         3.1673294087
 Al         2.3621565639        -2.5696753383         1.7265562033
 Al        -2.3633423854         2.5744186246        -1.7312994896
  O         3.2847257439        -6.1923602292         8.1596382108
  O        -8.3469980186        -5.0278834492        -5.6302808059
  O         8.3469980186         5.0373700218         5.6243516980
  O        -3.2870973871         6.1864311213        -8.1667531403
  H        -3.8989813163        -1.0506379094        -1.6127173328
  H        -1.3696239113         2.3526699913        -4.1800210279
  H         1.3719955544        -2.3585990992         4.1895076005
  H         3.8989813163         1.0530095526         1.6127173328
  O         6.7912001211         4.5025644945        -5.2567470119
  O        -6.7935717643        -4.5025644945         5.2579328334
  H         0.4304532293        -4.1254732358         0.8858087115
  H        -0.4268957646         4.1219157711        -0.8858087115
  H        -7.0627532603        -1.8190502856         4.3721241220
  O        -8.2307875049        -6.6168843506        -3.1436129773
  H         7.0615674387         1.8273510366        -4.3875398024
      18
 i =        3, time =        3.000, E =     -1092.0305964102
  O         1.9566055875         7.3497220798         5.8544010822
 Al         1.3921545211        -2.7250179637         4.0033336143
 Al        -1.3862254132         2.7143455696        -4.0104485437
  O         2.9123777715        -4.3318061887         7.8702977482
  O        -8.5082697519        -5.8947190156        -4.0294216888
  O         8.5023406441         5.9184354469         4.0116343653
  O        -2.9194927009         4.3246912593        -7.8738552129
  H        -3.8349469516        -1.8143069994        -1.5818859720
  H        -0.6272996096         2.7487343951        -3.5052885556
  H         0.6320428959        -2.7653358971         3.5230758791
  H         3.8385044163         1.8190502856         1.5807001504
  O         8.8130258949         3.0582338244        -4.8440811061
  O        -8.8213266459        -3.0629771107         4.8500102140
  H        -0.0166015020        -4.6164033650         0.7980579154
  H         0.0201589667         4.6223324729        -0.7992437370
  H        -0.9747453291        -2.3989170325         1.6281330132
  O        -2.0514713130        -7.3295631131        -5.7808801450
  H         1.0731685192         2.3846871737        -1.6945390210
      18
 i =        4, time =        4.000, E =     -1092.0289989673
  O         5.6622979882         5.9302936626         2.2637333737
 Al         0.7968720938        -2.1676818267         4.3638233710
 Al        -0.7968720938         2.1819116855        -4.3543367985
  O         2.3846871737        -4.8606826081         8.0967896677
  O        -8.7074877754        -6.8493053780        -3.1234540107
  O         8.7063019538         6.8457479133         3.1198965460
  O        -2.3846871737         4.8559393218        -8.0991613109
  H        -3.7234797242        -2.1427795738        -1.4111276662
  H        -0.6391578253         3.3535033949        -3.6962058281
  H         0.6403436468        -3.3463884655         3.6997632928
  H         3.7211080810         2.1439653953         1.4087560230
  O         9.7261085024         2.6775851010        -5.0634580963
  O        -9.7367808966        -2.6799567442         5.0693872041
  H        -0.1102814058        -4.6033593278         0.8798796036
  H         0.1138388705         4.6104742572        -0.8810654252
  H        -4.9484334041        -1.4929493544         4.4041413043
  O        -5.4571508569        -5.9504526293        -2.4155185344
  H         4.7527728454         1.4953209975        -4.2606568946
      18
 i =        5, time =        5.000, E =     -1092.0287953970
  O         2.6491253834         5.1251208178         5.1014043864
 Al         0.4375681587        -1.4265433466         4.4930779219
 Al        -0.4434972665         1.4206142387        -4.4954495651
  O         2.3775722443        -5.2045708629         8.6885146303
  O        -8.1762397128        -5.7666502862        -3.1115957950
  O         8.1786113559         5.7785085019         3.1056666871
  O        -2.3799438874         5.2010133982        -8.6932579165
  H        -3.7910715536        -2.2886356266        -1.5747710426
  H        -0.5561503155         3.0108009617        -3.3036988890
  H         0.5561503155        -3.0167300695         3.3119996400
  H         3.7910715536         2.2910072698         1.5723993994
  O        10.0474661474         2.6716559932        -5.0670155610
  O       -10.0533952553        -2.6740276363         5.0693872041
  H        -0.4790719136        -4.5156085317         0.8632781017
  H         0.4826293783         4.5203518180        -0.8644639232
  H        -1.8261652150        -1.1241588467         1.9862511267
  O        -2.6431962755        -5.1191917100        -5.0942894570
  H         1.8285368582         1.1146722741        -1.9874369483
      18
 i =        6, time =        6.000, E =     -1092.0306243851
  O         3.4163519380         3.5633938125         5.8911615509
 Al        -0.2573232803         0.5561503155         0.2288635627
 Al         0.2620665666        -0.5549644939        -0.2264919195
  O         2.1522661463        -7.3639519386         8.4335629931
  O        -5.3694000608        -5.2152432570        -2.1890266149
  O         5.3717717040         5.2235440080         2.1842833286
  O        -2.1546377894         7.3520937229        -8.4335629931
  H        -4.3235054377        -4.0353507966        -1.4063843799
  H        -0.6664317213         3.5373057380        -2.9740404931
  H         0.6616884351        -3.5373057380         2.9775979578
  H         4.3187621514         4.0353507966         1.4016410936
  O         8.3173524794         2.0158966660        -4.7017825179
  O        -8.3149808363        -2.0194541307         4.6970392317
  H        -0.4612845900        -4.4278577357         0.6830332233
  H         0.4624704116         4.4278577357        -0.6818474017
  H        -1.4609321720        -1.6459203367         0.3948785822
  O        -3.4388825478        -3.5467923105        -5.8638876548
  H         1.4822769603         1.6364337641        -0.4138517273
      18
 i =        7, time =        7.000, E =     -1092.0365039280
  O         7.5513117464         3.9594582162        -0.6367861821
 Al        -1.0079483330        -1.9340749777         0.5620794233
 Al         1.0091341545         1.9293316915        -0.5656368880
  O         9.2956552732        -2.2281587267        10.5692276374
  O        -6.4117372193       -14.2239297107        -0.6012115351
  O         6.4093655762        14.2215580675         0.6000257135
  O        -9.2956552732         2.2174863326       -10.5739709237
  H       -10.6901814374        -6.2599520586        -3.4768288380
  H        -3.6879050771        10.1411460513        -6.4247812566
  H         3.6890908987       -10.1387744082         6.4247812566
  H        10.6830665080         6.2682528096         3.4803863027
  O         9.0940656066         7.5904438581        -9.9976616416
  O        -9.0893223203        -7.5892580365        10.0012191063
  H         1.9293316915       -11.5819192567         5.0931036355
  H        -1.9269600483        11.5842908998        -5.0883603492
  H        -7.3793676190        -1.9115443680         8.7122310616
  O        -7.5536833895        -3.9653873241         0.6379720037
  H         7.3805534405         1.9162876542        -8.7157885263
