1 0
2 2.6237
3 6.2309
4 7.23331
5 7.36105
6 6.21335
7 2.52388
