-552.513557847
-552.514400266
-552.511890994
-552.507193752
-552.501174546
-552.494508847
-552.487739936
-552.481079292
-552.474438867
-552.467872202
-552.461488994
