      96
 i =        1, time =        0.950, E =      -552.5135578471
  O         0.0024526743        0.0099091658       -0.0380071857
  H        -0.0082356511        0.0056203454        0.0253094483
  H         0.0117296950       -0.0137601142        0.0131223394
  O        -0.0086176212       -0.0129457518       -0.0009814989
  H         0.0077337739       -0.0064715039       -0.0065569734
  H        -0.0077287826        0.0129399130       -0.0005775472
  O        -0.0072411988       -0.0066486701        0.0120789013
  H         0.0020229569        0.0024321964       -0.0081153795
  H         0.0096551868        0.0025609130       -0.0066171189
  O         0.0023958766        0.0040144632       -0.0285263967
  H         0.0019319947        0.0081799837        0.0108000690
  H        -0.0031210435       -0.0159676778        0.0189960651
  O         0.0151582728        0.0076728525       -0.0042690805
  H        -0.0057720474        0.0048251781        0.0032063188
  H        -0.0015629229       -0.0063574035        0.0032061371
  O         0.0167634516       -0.0152928532        0.0063078769
  H        -0.0076333152        0.0065725675       -0.0039494693
  H        -0.0138409803        0.0110551448       -0.0061645630
  O        -0.0009716869       -0.0075418254       -0.0145637173
  H        -0.0057769051        0.0025663624        0.0044846236
  H        -0.0027632824        0.0005264598        0.0122469168
  O        -0.0022336467        0.0158715831        0.0218631181
  H         0.0142972194        0.0006145471       -0.0063490237
  H        -0.0124349062       -0.0204027117       -0.0115519015
  O        -0.0012437412       -0.0157751535       -0.0091931582
  H        -0.0033407374        0.0224845474        0.0138617294
  H         0.0024790229       -0.0133022170       -0.0079283086
  O         0.0111309638       -0.0184648098       -0.0111981877
  H         0.0021242258        0.0054868890        0.0125192799
  H        -0.0031193624        0.0115121226        0.0095020768
  O        -0.0058641827        0.0022473690       -0.0065586451
  H        -0.0041409256        0.0023030667        0.0074822868
  H        -0.0020154220       -0.0016077117       -0.0054601040
  O         0.0340136606        0.0132203412        0.0227574471
  H        -0.0138059220        0.0099322468       -0.0148029363
  H        -0.0131768916       -0.0237827714       -0.0090523461
  O         0.0091559901        0.0010019321        0.0027358575
  H        -0.0032293840        0.0083515184       -0.0062500485
  H        -0.0062300374       -0.0103921616        0.0028709320
  O         0.0068953194       -0.0318338068        0.0197679187
  H         0.0059126240        0.0079645762       -0.0134107073
  H        -0.0112288922        0.0234281933       -0.0009495210
  O        -0.0091945622        0.0202644152        0.0279701206
  H         0.0172637210        0.0021911717        0.0022039868
  H        -0.0047854146       -0.0194999319       -0.0284503328
  O         0.0123564108        0.0175089357       -0.0124552185
  H        -0.0165323155       -0.0137197223        0.0267827825
  H         0.0072428906       -0.0003474681       -0.0055155120
  O        -0.0099469719        0.0049115085        0.0049887688
  H         0.0007304451        0.0035524490        0.0019179433
  H         0.0051404537       -0.0104024893       -0.0117775045
  O         0.0190288676        0.0059922158       -0.0051092034
  H        -0.0144925056       -0.0033149996       -0.0006289676
  H        -0.0055003199       -0.0037637511        0.0075022487
  O         0.0365963297       -0.0161528481        0.0015010201
  H        -0.0267165519        0.0232993317       -0.0100174170
  H        -0.0030596234       -0.0108952687        0.0089617195
  O        -0.0095104330       -0.0398454465       -0.0047208191
  H        -0.0231147656        0.0171023462        0.0062937766
  H         0.0246859409        0.0195010514       -0.0002790272
  O         0.0294295492        0.0176050111       -0.0253347496
  H        -0.0202812444       -0.0006373352       -0.0036039112
  H        -0.0091939173       -0.0154160133        0.0275923350
  O         0.0284264230        0.0294598758        0.0082780491
  H         0.0093104643       -0.0023386156       -0.0012887679
  H        -0.0265340235       -0.0200488028       -0.0029240972
  O         0.0271334601        0.0106655744        0.0379328245
  H        -0.0064838803       -0.0021227230       -0.0372902902
  H        -0.0236785831       -0.0089761639       -0.0064244721
  O        -0.0032119228        0.0041716852       -0.0058350398
  H         0.0059630216       -0.0030927159        0.0030294054
  H         0.0007405457        0.0015587925        0.0091389268
  O         0.0009190588       -0.0070567161        0.0051556742
  H        -0.0056917260       -0.0009224380       -0.0072309949
  H         0.0025410390        0.0061953659       -0.0000300128
  O        -0.0501860326        0.0125748172        0.0021563919
  H         0.0094893438       -0.0084852808       -0.0027082131
  H         0.0419842683       -0.0071198699        0.0037034268
  O         0.0289639890       -0.0017907643        0.0393366766
  H        -0.0100203002       -0.0171473498       -0.0159379439
  H        -0.0123237963        0.0161888749       -0.0289530902
  O        -0.0116200007        0.0003491799       -0.0021812304
  H        -0.0110594681       -0.0024005304       -0.0031519689
  H         0.0258989851       -0.0051215537        0.0051273752
  O        -0.0402665519        0.0411023864        0.0285207908
  H         0.0262226173       -0.0360249187       -0.0249500369
  H         0.0197549029       -0.0010036284       -0.0056754415
  O         0.0175364776       -0.0196348117        0.0224647470
  H        -0.0030027104        0.0111880713       -0.0235953759
  H        -0.0184724800        0.0079243058       -0.0031000989
  O         0.0153075587       -0.0250300562        0.0107894368
  H        -0.0056306280        0.0125712815        0.0009702419
  H        -0.0136744653        0.0165349448       -0.0137381692
  O        -0.0171586884        0.0239206464       -0.0064036028
  H         0.0255278107       -0.0100432252       -0.0142133069
  H        -0.0092148744       -0.0089582780        0.0227548889
      96
 i =        2, time =        1.000, E =      -552.5144002664
  O         0.0024650778        0.0099996366       -0.0380394248
  H        -0.0082321082        0.0055850851        0.0252931367
  H         0.0117522878       -0.0137866168        0.0131540110
  O        -0.0086471927       -0.0129031868       -0.0010444745
  H         0.0077544075       -0.0064709950       -0.0065263863
  H        -0.0077042122        0.0129046276       -0.0005599522
  O        -0.0072637335       -0.0066589146        0.0120954480
  H         0.0020265143        0.0024269568       -0.0081013417
  H         0.0096705986        0.0025438276       -0.0066537511
  O         0.0023137568        0.0039689953       -0.0287155120
  H         0.0019213521        0.0081137728        0.0109212337
  H        -0.0030973350       -0.0159193102        0.0189852660
  O         0.0151617374        0.0076588323       -0.0043229250
  H        -0.0057788640        0.0048307974        0.0032430523
  H        -0.0015536834       -0.0063431553        0.0032364390
  O         0.0167237680       -0.0151753589        0.0063697791
  H        -0.0076339375        0.0064775687       -0.0040015450
  H        -0.0137708316        0.0109725766       -0.0061725491
  O        -0.0009292644       -0.0074888576       -0.0145319700
  H        -0.0057797746        0.0025469066        0.0044811421
  H        -0.0027709066        0.0005262006        0.0122387250
  O        -0.0021818505        0.0158813428        0.0218277527
  H         0.0142667103        0.0006094704       -0.0063388959
  H        -0.0124501217       -0.0204018509       -0.0115295333
  O        -0.0011638320       -0.0157713087       -0.0091152527
  H        -0.0034090517        0.0224729088        0.0138085624
  H         0.0024545990       -0.0133256648       -0.0079286569
  O         0.0109659306       -0.0182801003       -0.0112005500
  H         0.0021388558        0.0054622303        0.0125848285
  H        -0.0028164946        0.0112464443        0.0095354745
  O        -0.0059218943        0.0020486481       -0.0070522379
  H        -0.0040177523        0.0023482810        0.0075332188
  H        -0.0019470746       -0.0013883542       -0.0048063696
  O         0.0340583300        0.0132754248        0.0227161869
  H        -0.0138424422        0.0099019466       -0.0147926260
  H        -0.0131848646       -0.0237971326       -0.0090554973
  O         0.0091756125        0.0009737711        0.0027588547
  H        -0.0032664315        0.0083559671       -0.0062403392
  H        -0.0062199206       -0.0103994791        0.0028789116
  O         0.0069155629       -0.0318334766        0.0197434248
  H         0.0058979009        0.0079495367       -0.0133902531
  H        -0.0112325735        0.0234403975       -0.0009399356
  O        -0.0091969770        0.0202247452        0.0279400533
  H         0.0172811601        0.0022013626        0.0022088431
  H        -0.0047828031       -0.0194392490       -0.0284395805
  O         0.0123094804        0.0174825387       -0.0125197531
  H        -0.0165335718       -0.0137142037        0.0267677912
  H         0.0072303566       -0.0003509312       -0.0054527069
  O        -0.0099421376        0.0049160546        0.0049755321
  H         0.0007255467        0.0035507166        0.0019275459
  H         0.0051382550       -0.0104017878       -0.0117626897
  O         0.0190572445        0.0064610656       -0.0049091659
  H        -0.0145320058       -0.0034215848       -0.0006058535
  H        -0.0055630831       -0.0037846384        0.0073755102
  O         0.0366268806       -0.0161092438        0.0015241233
  H        -0.0267004334        0.0232662533       -0.0100494446
  H        -0.0030887029       -0.0109042760        0.0089636899
  O        -0.0095989857       -0.0398657475       -0.0047274541
  H        -0.0230318745        0.0171122830        0.0063367036
  H         0.0246850864        0.0195265037       -0.0002988668
  O         0.0067643043       -0.0039666433        0.0036772491
  H        -0.0204851189       -0.0011066633       -0.0029066492
  H         0.0134079164        0.0063952122       -0.0017730781
  O         0.0285242143        0.0295099612        0.0083157537
  H         0.0092567481       -0.0023493981       -0.0013033037
  H        -0.0265767535       -0.0200775418       -0.0029414664
  O         0.0272073906        0.0106259493        0.0379646105
  H        -0.0065344389       -0.0020919243       -0.0373622461
  H        -0.0237598690       -0.0089536068       -0.0063991582
  O        -0.0033871715        0.0041054313       -0.0065288446
  H         0.0063955109       -0.0025663349        0.0032803945
  H         0.0006596217        0.0006845240        0.0088083898
  O         0.0012110913       -0.0068579076        0.0052958372
  H        -0.0057128527       -0.0009752591       -0.0073357494
  H         0.0024733800        0.0061108442        0.0000111201
  O        -0.0501371646        0.0125408038        0.0020814264
  H         0.0094959525       -0.0084872155       -0.0026672494
  H         0.0419079889       -0.0070590389        0.0037811589
  O         0.0289365895       -0.0017681102        0.0392332729
  H        -0.0100173480       -0.0171777539       -0.0159019187
  H        -0.0122970724        0.0161846879       -0.0289177926
  O        -0.0114367994        0.0001877861       -0.0021971281
  H        -0.0111160345       -0.0024005944       -0.0031288054
  H         0.0257069504       -0.0049027394        0.0052367710
  O        -0.0402966041        0.0411408587        0.0284796800
  H         0.0262349895       -0.0360263838       -0.0249494610
  H         0.0197609570       -0.0010257786       -0.0056577451
  O         0.0178196720       -0.0198822381        0.0225331364
  H        -0.0030069652        0.0112520840       -0.0236980958
  H        -0.0189447189        0.0082734087       -0.0031067538
  O         0.0153224144       -0.0250302901        0.0108499573
  H        -0.0056002936        0.0125604966        0.0009546047
  H        -0.0136919307        0.0165985526       -0.0138174707
  O        -0.0171507598        0.0239432817       -0.0064379116
  H         0.0255031643       -0.0100429589       -0.0142098109
  H        -0.0092238611       -0.0089673932        0.0228000589
      96
 i =        3, time =        1.050, E =      -552.5118909942
  O         0.0024777398        0.0101021730       -0.0380747243
  H        -0.0082274166        0.0055450613        0.0252728421
  H         0.0117789618       -0.0138173364        0.0131910321
  O        -0.0086830553       -0.0128554864       -0.0011159385
  H         0.0077791666       -0.0064684650       -0.0064916538
  H        -0.0076747545        0.0128627996       -0.0005387172
  O        -0.0072894757       -0.0066707500        0.0121139683
  H         0.0020312294        0.0024214383       -0.0080845565
  H         0.0096877871        0.0025244506       -0.0066956003
  O         0.0022200818        0.0039170561       -0.0289306158
  H         0.0019091470        0.0080389718        0.0110584262
  H        -0.0030711618       -0.0158661729        0.0189722377
  O         0.0151659699        0.0076426683       -0.0043845544
  H        -0.0057867971        0.0048371871        0.0032848749
  H        -0.0015435079       -0.0063267212        0.0032711534
  O         0.0166776563       -0.0150430283        0.0064390509
  H        -0.0076339138        0.0063718037       -0.0040593127
  H        -0.0136911611        0.0108778944       -0.0061819521
  O        -0.0008826569       -0.0074286792       -0.0144950958
  H        -0.0057822869        0.0025236186        0.0044777665
  H        -0.0027792735        0.0005261755        0.0122276188
  O        -0.0021233465        0.0158922574        0.0217874410
  H         0.0142319245        0.0006036103       -0.0063269755
  H        -0.0124671462       -0.0204006499       -0.0115042080
  O        -0.0010762736       -0.0157698589       -0.0090247906
  H        -0.0034830001        0.0224606964        0.0137459120
  H         0.0024277885       -0.0133505193       -0.0079299604
  O         0.0107819012       -0.0180697243       -0.0111968558
  H         0.0021546352        0.0054354688        0.0126525927
  H        -0.0024805805        0.0109447643        0.0095712513
  O        -0.0059829458        0.0018239235       -0.0076071687
  H        -0.0038834044        0.0023967075        0.0075894348
  H        -0.0018680149       -0.0011299345       -0.0040761509
  O         0.0341089716        0.0133387827        0.0226690962
  H        -0.0138838856        0.0098672004       -0.0147808583
  H        -0.0131937395       -0.0238136393       -0.0090591290
  O         0.0091969733        0.0009431855        0.0027847155
  H        -0.0033074115        0.0083612247       -0.0062294545
  H        -0.0062087056       -0.0104083753        0.0028879922
  O         0.0069383457       -0.0318329947        0.0197155609
  H         0.0058811929        0.0079322308       -0.0133668229
  H        -0.0112367328        0.0234543586       -0.0009292461
  O        -0.0091994636        0.0201803877        0.0279061553
  H         0.0173002025        0.0022124121        0.0022140290
  H        -0.0047793513       -0.0193711877       -0.0284276094
  O         0.0122568748        0.0174497339       -0.0125946167
  H        -0.0165333496       -0.0137065244        0.0267503125
  H         0.0072147450       -0.0003525777       -0.0053786444
  O        -0.0099366535        0.0049209420        0.0049609113
  H         0.0007199548        0.0035492309        0.0019382693
  H         0.0051357841       -0.0104012620       -0.0117461315
  O         0.0190914555        0.0069966123       -0.0046756496
  H        -0.0145777998       -0.0035444143       -0.0005788293
  H        -0.0056354617       -0.0038043310        0.0072275588
  O         0.0366614145       -0.0160602171        0.0015506044
  H        -0.0266824508        0.0232287820       -0.0100854730
  H        -0.0031211878       -0.0109145872        0.0089658895
  O        -0.0096991366       -0.0398900803       -0.0047353971
  H        -0.0229391300        0.0171245891        0.0063850605
  H         0.0246851799        0.0195560299       -0.0003213095
  O        -0.0087025610       -0.0185491662        0.0229485799
  H        -0.0207275102       -0.0015530314       -0.0023276106
  H         0.0287689020        0.0210940034       -0.0210779416
  O         0.0286367353        0.0295659743        0.0083590884
  H         0.0091959892       -0.0023595171       -0.0013195586
  H        -0.0266267425       -0.0201114295       -0.0029612002
  O         0.0272903854        0.0105808507        0.0379996298
  H        -0.0065903495       -0.0020570288       -0.0374420907
  H        -0.0238516341       -0.0089283535       -0.0063710315
  O        -0.0035565614        0.0040854105       -0.0074585657
  H         0.0069129907       -0.0019450751        0.0035805154
  H         0.0005768117       -0.0003127127        0.0084071091
  O         0.0015360045       -0.0066389529        0.0054590429
  H        -0.0057352928       -0.0010344773       -0.0074521095
  H         0.0023937874        0.0060161230        0.0000530954
  O        -0.0500845286        0.0125038356        0.0019950243
  H         0.0095035548       -0.0084901604       -0.0026178494
  H         0.0418246273       -0.0069916370        0.0038675079
  O         0.0289054460       -0.0017417831        0.0391143461
  H        -0.0100140854       -0.0172126380       -0.0158611633
  H        -0.0122663184        0.0161794217       -0.0288766793
  O        -0.0112332513        0.0000064420       -0.0022115908
  H        -0.0111771831       -0.0023981419       -0.0031040438
  H         0.0254900090       -0.0046592185        0.0053554477
  O        -0.0403297023        0.0411848880        0.0284326449
  H         0.0262487171       -0.0360274459       -0.0249483809
  H         0.0197665023       -0.0010517221       -0.0056378041
  O         0.0181351324       -0.0201627689        0.0226155083
  H        -0.0030078421        0.0113229402       -0.0238157905
  H        -0.0194771880        0.0086733953       -0.0031209548
  O         0.0153383798       -0.0250284878        0.0109176531
  H        -0.0055652142        0.0125477057        0.0009349639
  H        -0.0137117987        0.0166686098       -0.0139041235
  O        -0.0171424869        0.0239695003       -0.0064779526
  H         0.0254760702       -0.0100426913       -0.0142060273
  H        -0.0092343228       -0.0089781287        0.0228524418
      96
 i =        4, time =        1.100, E =      -552.5071937520
  O         0.0024932524        0.0102161854       -0.0381141190
  H        -0.0082226724        0.0055008151        0.0252511107
  H         0.0118077008       -0.0138515477        0.0132314090
  O        -0.0087218047       -0.0128017968       -0.0011955726
  H         0.0078062207       -0.0064668538       -0.0064527414
  H        -0.0076425791        0.0128168640       -0.0005154083
  O        -0.0073183638       -0.0066842958        0.0121349018
  H         0.0020368214        0.0024154696       -0.0080653574
  H         0.0097069364        0.0025028466       -0.0067427409
  O         0.0021144667        0.0038581685       -0.0291722629
  H         0.0018949024        0.0079543713        0.0112120520
  H        -0.0030423463       -0.0158072796        0.0189564316
  O         0.0151704559        0.0076247933       -0.0044535751
  H        -0.0057956501        0.0048445569        0.0033313793
  H        -0.0015318665       -0.0063085984        0.0033105268
  O         0.0166274768       -0.0148963076        0.0065170217
  H        -0.0076349730        0.0062525842       -0.0041246734
  H        -0.0136025347        0.0107735466       -0.0061927030
  O        -0.0008299475       -0.0073623443       -0.0144549325
  H        -0.0057857051        0.0024990148        0.0044734298
  H        -0.0027887284        0.0005258603        0.0122169055
  O        -0.0020584611        0.0159044091        0.0217428713
  H         0.0141937794        0.0005971030       -0.0063138593
  H        -0.0124865014       -0.0203993476       -0.0114760498
  O        -0.0009792522       -0.0157701917       -0.0089250708
  H        -0.0035639425        0.0224495476        0.0136759527
  H         0.0023969601       -0.0133786716       -0.0079316868
  O         0.0105778441       -0.0178345354       -0.0111937630
  H         0.0021734453        0.0054041384        0.0127305408
  H        -0.0021102244        0.0106105055        0.0096091199
  O        -0.0060543788        0.0015697463       -0.0082254021
  H        -0.0037298363        0.0024512595        0.0076536976
  H        -0.0017755107       -0.0008304989       -0.0032696680
  O         0.0341664164        0.0134105409        0.0226166682
  H        -0.0139310801        0.0098286208       -0.0147679934
  H        -0.0132037588       -0.0238331065       -0.0090633605
  O         0.0092207888        0.0009094581        0.0028138838
  H        -0.0033536587        0.0083664319       -0.0062177137
  H        -0.0061962591       -0.0104173597        0.0028976559
  O         0.0069641241       -0.0318324362        0.0196840696
  H         0.0058623654        0.0079126598       -0.0133402161
  H        -0.0112415905        0.0234701570       -0.0009173701
  O        -0.0092025470        0.0201315821        0.0278693948
  H         0.0173218627        0.0022247278        0.0022197212
  H        -0.0047754251       -0.0192961606       -0.0284153925
  O         0.0121983968        0.0174151528       -0.0126797517
  H        -0.0165341553       -0.0136989459        0.0267328950
  H         0.0071976294       -0.0003556807       -0.0052964603
  O        -0.0099305115        0.0049265810        0.0049443639
  H         0.0007137208        0.0035474828        0.0019503644
  H         0.0051329804       -0.0104007562       -0.0117276381
  O         0.0191224089        0.0076004815       -0.0044086309
  H        -0.0146250752       -0.0036807417       -0.0005562166
  H        -0.0057116249       -0.0038251658        0.0070677984
  O         0.0367000381       -0.0160048607        0.0015803507
  H        -0.0266619661        0.0231860791       -0.0101257210
  H        -0.0031580392       -0.0109262859        0.0089684031
  O        -0.0098112508       -0.0399173594       -0.0047440289
  H        -0.0228352532        0.0171385549        0.0064384525
  H         0.0246851681        0.0195890156       -0.0003463818
  O        -0.0188338239       -0.0280129938        0.0351293399
  H        -0.0210307821       -0.0019754487       -0.0018935731
  H         0.0387895064        0.0305660872       -0.0329564544
  O         0.0287633454        0.0296281353        0.0084081866
  H         0.0091282443       -0.0023696859       -0.0013379190
  H        -0.0266833039       -0.0201500884       -0.0029833228
  O         0.0273817458        0.0105308129        0.0380400150
  H        -0.0066531739       -0.0020184327       -0.0375322709
  H        -0.0239520336       -0.0089002296       -0.0063402113
  O        -0.0037340945        0.0040932824       -0.0086092180
  H         0.0075155533       -0.0012272126        0.0039335016
  H         0.0004912960       -0.0014369260        0.0079335144
  O         0.0018969085       -0.0063950499        0.0056442124
  H        -0.0057590812       -0.0011013371       -0.0075817517
  H         0.0023019182        0.0059080653        0.0000999582
  O        -0.0500232904        0.0124611224        0.0018996152
  H         0.0095121533       -0.0084928207       -0.0025646740
  H         0.0417281679       -0.0069148329        0.0039653970
  O         0.0288702110       -0.0017121528        0.0389800638
  H        -0.0100103281       -0.0172518594       -0.0158150204
  H        -0.0122318315        0.0161737405       -0.0288305199
  O        -0.0110080597       -0.0001939846       -0.0022256928
  H        -0.0112457308       -0.0023950519       -0.0030766721
  H         0.0252492721       -0.0043895476        0.0054848072
  O        -0.0403664878        0.0412338645        0.0283798772
  H         0.0262638751       -0.0360281751       -0.0249468143
  H         0.0197728700       -0.0010808610       -0.0056154005
  O         0.0184886654       -0.0204767567        0.0227062801
  H        -0.0030050769        0.0113974112       -0.0239419653
  H        -0.0200775119        0.0091291988       -0.0031434972
  O         0.0153568626       -0.0250268576        0.0109935623
  H        -0.0055264962        0.0125337290        0.0009131031
  H        -0.0137343015        0.0167468281       -0.0140012410
  O        -0.0171328351        0.0239986575       -0.0065230046
  H         0.0254455394       -0.0100422815       -0.0142015979
  H        -0.0092460822       -0.0089902175        0.0229113126
      96
 i =        5, time =        1.150, E =      -552.5011745459
  O         0.0025102871        0.0103429147       -0.0381570686
  H        -0.0082171867        0.0054515734        0.0252262999
  H         0.0118397060       -0.0138900181        0.0132764404
  O        -0.0087651412       -0.0127424358       -0.0012834885
  H         0.0078365046       -0.0064649416       -0.0064095649
  H        -0.0076067457        0.0127656946       -0.0004893500
  O        -0.0073498759       -0.0066991809        0.0121580555
  H         0.0020428438        0.0024087504       -0.0080442741
  H         0.0097279972        0.0024785150       -0.0067944823
  O         0.0019960053        0.0037912801       -0.0294434478
  H         0.0018791019        0.0078597730        0.0113850177
  H        -0.0030108065       -0.0157415363        0.0189372555
  O         0.0151756168        0.0076048705       -0.0045303606
  H        -0.0058055106        0.0048527615        0.0033829594
  H        -0.0015190068       -0.0062883647        0.0033544727
  O         0.0165712475       -0.0147347141        0.0066031617
  H        -0.0076357229        0.0061207583       -0.0041970072
  H        -0.0135042221        0.0106580072       -0.0062048172
  O        -0.0007720581       -0.0072885837       -0.0144101386
  H        -0.0057892291        0.0024712377        0.0044687400
  H        -0.0027991245        0.0005255525        0.0122045883
  O        -0.0019864910        0.0159176506        0.0216931881
  H         0.0141513193        0.0005897588       -0.0062991014
  H        -0.0125079373       -0.0203976059       -0.0114446049
  O        -0.0008727776       -0.0157727937       -0.0088128784
  H        -0.0036512764        0.0224382638        0.0135973929
  H         0.0023633889       -0.0134087785       -0.0079342395
  O         0.0103532197       -0.0175737769       -0.0111865215
  H         0.0021946175        0.0053691849        0.0128145208
  H        -0.0017033975        0.0102407892        0.0096478596
  O        -0.0061328408        0.0012857174       -0.0089086152
  H        -0.0035613075        0.0025102435        0.0077241332
  H        -0.0016685342       -0.0004862038       -0.0023824973
  O         0.0342301845        0.0134906026        0.0225581163
  H        -0.0139833597        0.0097855352       -0.0147536839
  H        -0.0132146903       -0.0238546040       -0.0090680506
  O         0.0092467222        0.0008726899        0.0028459956
  H        -0.0034042008        0.0083725819       -0.0062045697
  H        -0.0061827335       -0.0104280052        0.0029085687
  O         0.0069925359       -0.0318317035        0.0196492623
  H         0.0058415320        0.0078909320       -0.0133108597
  H        -0.0112468739        0.0234875424       -0.0009041869
  O        -0.0092057484        0.0200777189        0.0278286565
  H         0.0173454257        0.0022380378        0.0022258655
  H        -0.0047707472       -0.0192133436       -0.0284021119
  O         0.0121336283        0.0173759193       -0.0127748106
  H        -0.0165344869       -0.0136899522        0.0267136744
  H         0.0071782244       -0.0003584548       -0.0052044095
  O        -0.0099236940        0.0049327704        0.0049259290
  H         0.0007067849        0.0035456200        0.0019638287
  H         0.0051298705       -0.0104002211       -0.0117070767
  O         0.0191628172        0.0082748346       -0.0041079160
  H        -0.0146803398       -0.0038343325       -0.0005270140
  H        -0.0057993535       -0.0038442490        0.0068836894
  O         0.0367430121       -0.0159436906        0.0016136460
  H        -0.0266395280        0.0231387060       -0.0101702582
  H        -0.0031985419       -0.0109393034        0.0089710704
  O        -0.0099359336       -0.0399473951       -0.0047537855
  H        -0.0227202413        0.0171540778        0.0064967569
  H         0.0246851412        0.0196256570       -0.0003741023
  O        -0.0249167635       -0.0336259629        0.0419878527
  H        -0.0213655535       -0.0023590677       -0.0016108263
  H         0.0447535560        0.0360903315       -0.0392173022
  O         0.0289033998        0.0296971662        0.0084632082
  H         0.0090534577       -0.0023808914       -0.0013585303
  H        -0.0267455944       -0.0201928754       -0.0030077181
  O         0.0274823008        0.0104750190        0.0380841256
  H        -0.0067220838       -0.0019754117       -0.0376314749
  H        -0.0240629370       -0.0088691137       -0.0063064174
  O        -0.0039403935        0.0040968281       -0.0099470789
  H         0.0081994889       -0.0004135634        0.0043408626
  H         0.0004005186       -0.0026853841        0.0073907847