0.90 2.21568
0.95 0
1.00 1.08928
1.05 4.51405
1.10 9.55618
1.15 15.7224
1.20 22.6161
1.25 29.9544
1.30 37.5331
1.35 45.2018
