      11
 i =        1, time =        1.000, E =      -621.7773341949
 Al         0.3071277862         5.5247426863        -2.3182811658
  O         2.7155313912        -4.1112433770        14.5168276380
  H         0.1517851607        12.6930340661         2.9562531695
  O        11.4455497764       -10.2205960964         3.5859244223
  H       -11.0139107255        -3.6108266752        -5.0421133080
  O       -10.5265380610        -8.9885274870        -4.2511703220
  H        -5.9255503763        11.1028473431        -2.0775593875
  O         6.8398188054        13.1981940542        -3.0060576754
  H         4.1705344554       -11.1277495961        -4.2345688201
  O       -10.4992641649        -1.3957119858         7.6781946542
  H        12.3337301309        -3.0629771107        -7.8086350267
      11
 i =        2, time =        2.000, E =      -621.7746317146
 Al        -2.2981221992         5.0077244825        -1.2569708623
  O         2.6431962755         1.3257485133        11.2214295000
  H        -0.0130440373         2.2222296188        -0.1909172725
  O         4.0780403731        -8.4122182049         2.2732199463
  H        -2.7250179637        -0.3498173626        -2.1510803247
  O       -10.6036164629        -2.0360556326        -4.7563303101
  H        -1.1573618506         2.7475485735         0.1944747372
  O         6.9311270662         6.9750024642        -4.1812068495
  H         0.9806744369        -3.6345431066        -0.6794757586
  O        -6.3192431370        -2.3846871737         5.2342164021
  H         8.4809958558        -1.4621179936        -5.7061733862
      11
 i =        3, time =        3.000, E =      -621.7716136467
 Al        -2.5459589069         5.2555611903        -1.1953081408
  O         2.8305560833        -0.2300493842        11.4941684606
  H         0.0260880745         3.1293831185        -0.0343888255
  O         4.4148136984        -8.3481838402         2.1866549718
  H        -2.8258127970        -0.3071277862        -2.1641243620
  O       -10.3344349669        -4.6484205474        -4.5250951043
  H        -1.6696367680         4.1373314515        -0.0403179333
  O         6.6892194663         7.2406264955        -4.2855591475
  H         0.9344273957        -3.6464013222        -0.5383629920
  O        -5.8271271862        -2.2103714031         5.1097051374
  H         8.3078659069        -0.3711621508        -6.0073720645
      11
 i =        4, time =        4.000, E =      -621.7699894601
 Al        -2.6858858520         5.1251208178        -0.9367990389
  O         2.9455807754        -1.1312737761        11.8582156821
  H         0.1434844098         3.3867063988         0.1138388705
  O         4.6911101238        -8.2924502265         2.1000899973
  H        -2.9017053774        -0.2264919195        -2.1522661463
  O       -10.7352426570        -5.5010262549        -4.4871488141
  H        -1.7004681288         3.7875140889        -0.2336068489
  O         6.6536448192         7.4303579464        -4.5084936023
  H         0.8609064585        -3.6381005713        -0.4091084410
  O        -5.1334215688        -1.3945261642         4.6436772611
  H         7.8619969972         0.4529838391        -5.9907705626
      11
 i =        5, time =        5.000, E =      -621.7692192738
 Al        -2.7179030343         5.0385558433        -0.7601116252
  O         3.0357032146        -2.0704444581        12.1902457212
  H         0.2964553921         3.5586505262         0.3154285371
  O         4.8808415747        -8.1572665677         1.9992951640
  H        -2.9550673480        -0.1624575548        -2.1083907483
  O       -11.0411846216        -6.2741819174        -4.3709383004
  H        -1.7977054974         3.3629899674        -0.5253189547
  O         6.5706373094         7.4967639542        -4.6365623317
  H         0.7707840193        -3.6381005713        -0.2834113548
  O        -4.6187750082        -0.2608807450         4.2262680691
  H         7.5762139993         1.1063715231        -6.0476899979
      11
 i =        6, time =        6.000, E =      -621.7690987749
 Al        -2.8566441578         5.4773098236        -0.8217743468
  O         3.0582338244        -2.8815464107        12.7155646759
  H         0.6118839292         3.3001414243         0.6427152900
  O         5.0978469217        -8.1276210285         1.9589772307
  H        -3.0416323225        -0.0818216882        -2.0407989189
  O       -11.2664907196        -7.2572279974        -4.1397030946
  H        -1.9921802346         2.9704830284        -0.9700020428
  O         6.6560164624         7.3592086523        -4.8025773512
  H         0.6320428959        -3.6985774712        -0.1387411235
  O        -4.0021477927         1.0992565937         3.6381005713
  H         7.1018853720         1.8403950739        -6.0429467116
      11
 i =        7, time =        7.000, E =      -621.7690183583
 Al        -1.9162876542         6.9607726054        -1.8415808954
  O         2.7902381500        -4.7598877748        13.3831822188
  H         0.8300750977         3.6226848909         0.7150504056
  O         5.2899500158        -7.9580485442         2.2222296188
  H        -3.5954109948        -0.8454907781        -1.7396002406
  O       -11.5427871449        -8.5817906891        -3.2455936322
  H        -1.6008591171         3.8776365280        -1.5107366779
  O         8.1299926716         5.9397802352        -5.0539715237
  H         0.8039870232        -4.9804505865        -0.4672136979
  O        -4.7575161317         3.0783927911         3.2017182342
  H         5.5709897274         3.6452155007        -5.6634838098
      11
 i =        8, time =        8.000, E =      -621.7766789070
 Al         0.2466508862        -0.9652587565        -1.1680342447
  O         3.1495420852       -10.6795090433        12.4677279681
  H        -0.9391706820        13.5883293501         1.1846357466
  O        12.5412489054        -5.6788994902         2.5886484834
  H       -11.5297431077        -5.6231658764        -2.8210695108
  O        -7.5038788836       -13.9108728167        -2.0597720640
  H        -3.8752648849        12.6301855230        -2.2151146894
  O         7.0686823681        11.7479342762        -5.9943280273
  H         3.5574647046       -12.3088278780        -1.4301008113
  O       -10.6795090433         4.4800338847         7.5347102444
  H         7.9663492952         6.7200508270        -8.0849314520
