       9
 i =        1, time =       90.000, E =      -546.0537423155
 Al        -5.8093398627        19.2363974795        -4.8227363179
  O        53.5647460576       -44.0568287237        -6.2718102743
  H       -48.9092105808        26.2291872672        10.9996808667
  H         0.2822255332        -0.0616627215         0.2407217783
  O        -0.6759182939        -1.3091470113         1.7455293484
  O         0.9700020428        -0.4897443077        -0.4755144489
  H         0.0367604686        -0.3770912587        -0.0830075098
  O         0.7316519076         1.1395745270        -1.8522532895
  H        -0.1921030940        -0.3118710724         0.5193898469
       9
 i =        2, time =      100.000, E =      -546.0600174266
 Al        -2.8637590872         9.9395563847        -2.6289664167
  O        24.7907857050       -25.6789660596        -0.8431191350
  H       -22.4902918626        16.5588123785         3.1685152303
  H         0.1162105137        -0.0675918294         0.1529709823
  O        -0.4043651548        -0.8075444880         1.0209923702
  O         0.5324338841        -0.2027754882        -0.1980322019
  H         0.0628485431        -0.1636433764        -0.0806358666
  O         0.3699763293         0.6272996096        -0.9047818565
  H        -0.1126530490        -0.2063329529         0.3130568940
       9
 i =        3, time =      110.000, E =      -546.0621333373
 Al        -0.6664317213         2.2518751580        -0.6296712527
  O         2.0289407032        -1.1502469212        -0.4683995194
  H        -1.5700277563        -0.8205885252         0.8846228899
  H        -0.0379462902        -0.0735209372         0.1114672274
  O        -0.0581052568        -0.2300493842         0.1968463803
  O         0.1031664764        -0.0675918294         0.0201589667
  H         0.0545477921         0.0474328627        -0.0675918294
  O         0.1328120156         0.1351836588        -0.1541568039
  H         0.0142298588        -0.0913082608         0.1079097627
       9
 i =        4, time =      120.000, E =      -546.0617204747
 Al         1.0755401624        -4.6021735062         1.2462984682
  O        -1.0245498349        -6.6892194663         2.9669255637
  H         0.0320171823        11.1372361686        -4.2879307906
  H        -0.0865649745        -0.0616627215         0.1245112647
  O         0.3213576450         0.5442920998        -0.5478495645
  O        -0.4304532293         0.0569194353         0.1814306999
  H         0.0806358666         0.0735209372        -0.0830075098
  O         0.0284597176        -0.4506121959         0.4790719136
  H         0.0047432863        -0.0083007510        -0.0806358666
       9
 i =        5, time =      130.000, E =      -546.0589349980
 Al         2.2352736561       -10.1079430474         2.8720598382
  O        -1.7822898170       -29.6075929150        12.3787913505
  H        -0.0391321118        39.1676863979       -15.1583571064
  H        -0.0450612196        -0.0260880745         0.1932889156
  O         0.5905391410         1.3672522681        -1.1146722741
  O        -0.9664445781         0.1458560529         0.3142427156
  H         0.1304403725        -0.0260880745        -0.1150246921
  O         0.0071149294        -0.9498430761         0.8288892762
  H        -0.1304403725         0.0367604686        -0.1992180235
       9
 i =        6, time =      140.000, E =      -546.0535770052
 Al         2.5020835089       -14.1089050185         4.1942508868
  O        -8.3398830892       -52.9006859794        24.7054065521
  H         6.6560164624        66.1522420041       -28.7609163153
  H         0.1067239411         0.0272738961         0.3130568940
  O         0.5988398919         2.1866549718        -1.3874112348
  O        -1.4431448485         0.1921030940         0.4221524783
  H         0.1897314509        -0.2490225293        -0.1707583058
  O         0.1197679784        -1.3423500152         0.8976669271
  H        -0.3901352959         0.0438753980        -0.2122620607
       9
 i =        7, time =      150.000, E =      -546.0498732011
 Al         1.3743671976       -16.4497167942         5.6587405235
  O       -17.8288272780       -54.5347481004        29.8720311247
  H        17.6272376114        69.8140590067       -35.1121766347
  H         0.2193769901         0.0450612196         0.4506121959
  O         0.3118710724         2.6633552422        -1.4146851309
  O        -1.7075830582        -0.0047432863         0.4612845900
  H         0.1612717333        -0.3486315411        -0.2110762391
  O         0.3498173626        -1.2925455093         0.4897443077
  H        -0.5063458096         0.1079097627        -0.1932889156
       9
 i =        8, time =      160.000, E =      -546.0438812469
 Al        -0.1956605588       -17.4493643762         6.6429724251
  O       -29.7581922542       -65.7573634219        40.0558667525
  H        31.6341619751        81.6592306516       -46.1913075464
  H         0.4873726645         0.1043522980         0.5929107841
  O        -0.1505993392         3.1530995499        -1.1419461702
  O        -1.9091727248        -0.0438753980         0.5122749175
  H         0.2181911686        -0.6462727547        -0.2917121058
  O         0.5027883449        -1.0885841996        -0.1375553019
  H        -0.8288892762         0.0699634725        -0.0415037549
