90 5.26545
100 1.32775
110 0
120 0.259075
130 2.00699
140 5.36918
150 7.69335
160 11.4534
