11
i = 1, time = 1.000, E = -621.7773341949
Al -0.2300450000 0.9705440000 -0.2086730000
O -0.4339490000 0.2446030000 -1.8369670000
H -0.3990060000 -0.7209480000 -1.8837100000
O -0.2154500000 2.7845520000 -0.2898520000
H 0.6560070000 3.0652450000 0.0260810000
O 1.3748280000 0.6368280000 0.5265410000
H 1.6615740000 -0.2834610000 0.6080990000
O -1.6567180000 0.5916860000 0.8213690000
H -1.9546420000 1.4281890000 1.2062440000
O 0.9958670000 -4.5035360000 0.2740100000
H 0.2015350000 -4.2137020000 0.7568630000
11
i = 2, time = 2.000, E = -621.7746317146
Al -0.2050160000 0.8735600000 -0.1983520000
O -0.4099560000 0.1518710000 -1.8132130000
H -0.3084100000 -0.8035630000 -1.8050920000
O -0.2145440000 2.6778710000 -0.3009430000
H 0.6426240000 2.9706020000 0.0194220000
O 1.3862720000 0.5311070000 0.5384220000
H 1.6187140000 -0.4019680000 0.5692490000
O -1.6208520000 0.4678420000 0.8291630000
H -1.9131580000 1.2844470000 1.2414780000
O 0.9042900000 -4.0160670000 0.2117220000
H 0.1200360000 -3.7357020000 0.7081430000
11
i = 3, time = 3.000, E = -621.7716136467
Al -0.1871070000 0.7975140000 -0.1919720000
O -0.3983780000 0.0855960000 -1.8109380000
H -0.2730030000 -0.8690720000 -1.7913770000
O -0.2243050000 2.6063520000 -0.2869530000
H 0.6305260000 2.9026660000 0.0369770000
O 1.4149310000 0.4802330000 0.5320360000
H 1.6335310000 -0.4594380000 0.5660600000
O -1.5935180000 0.3854810000 0.8501610000
H -1.8948830000 1.2123040000 1.2352280000
O 0.8388420000 -3.6737580000 0.1655190000
H 0.0533650000 -3.4678780000 0.6952590000
11
i = 4, time = 4.000, E = -621.7699894601
Al -0.1726710000 0.7391730000 -0.1876640000
O -0.3885950000 0.0351050000 -1.8099040000
H -0.2483790000 -0.9188570000 -1.7757450000
O -0.2315950000 2.5515050000 -0.2764580000
H 0.6217090000 2.8493670000 0.0504860000
O 1.4371200000 0.4418190000 0.5282540000
H 1.6379950000 -0.5037740000 0.5633950000
O -1.5730000000 0.3239430000 0.8661650000
H -1.8795730000 1.1590980000 1.2289340000
O 0.7895600000 -3.4171210000 0.1310700000
H 0.0074300000 -3.2602580000 0.6814670000
11
i = 5, time = 5.000, E = -621.7692192738
Al -0.1588730000 0.6845490000 -0.1838340000
O -0.3791150000 -0.0101610000 -1.8099640000
H -0.2281340000 -0.9637250000 -1.7590420000
O -0.2384820000 2.5005960000 -0.2669290000
H 0.6137440000 2.7993270000 0.0625800000
O 1.4579750000 0.4088430000 0.5262020000
H 1.6402560000 -0.5426190000 0.5616270000
O -1.5546290000 0.2682880000 0.8808500000
H -1.8644670000 1.1117050000 1.2217710000
O 0.7439000000 -3.1859950000 0.0989700000
H -0.0321760000 -3.0708070000 0.6677680000
11
i = 6, time = 6.000, E = -621.7690987749
Al -0.1420890000 0.6208180000 -0.1793020000
O -0.3679740000 -0.0565970000 -1.8130850000
H -0.2108210000 -1.0098400000 -1.7411120000
O -0.2474100000 2.4419400000 -0.2558820000
H 0.6043380000 2.7409380000 0.0753010000
O 1.4834010000 0.3782670000 0.5255820000
H 1.6437370000 -0.5795270000 0.5627320000
O -1.5345040000 0.2072840000 0.8976430000
H -1.8449380000 1.0617410000 1.2105210000
O 0.6909240000 -2.9332360000 0.0635250000
H -0.0746630000 -2.8717870000 0.6540770000
11
i = 7, time = 7.000, E = -621.7690183583
Al -0.0905810000 0.4154930000 -0.1597860000
O -0.3429900000 -0.1313670000 -1.8502630000
H -0.2058980000 -1.0878480000 -1.7508650000
O -0.2769180000 2.2640140000 -0.2207020000
H 0.5746140000 2.5750800000 0.1014900000
O 1.5748330000 0.3540400000 0.5320150000
H 1.7028420000 -0.6096360000 0.5954260000
O -1.4972810000 0.0641950000 0.9483050000
H -1.7827740000 0.9591490000 1.1635420000
O 0.5266380000 -2.3165670000 0.0023840000
H -0.1824860000 -2.4865530000 0.6384550000
11
i = 8, time = 8.000, E = -621.7766789070
Al -0.0429680000 0.1338140000 -0.1180170000
O -0.3117700000 -0.1354070000 -1.9344640000
H -0.2247890000 -1.1029680000 -1.9669370000
O -0.3220110000 2.0434180000 -0.1299380000
H 0.5576850000 2.3808470000 0.0983330000
O 1.7008720000 0.4005620000 0.5140450000
H 1.9635660000 -0.5241310000 0.6554410000
O -1.5155030000 -0.0620050000 1.0226930000
H -1.7598150000 0.8717550000 1.1277130000
O 0.3180920000 -1.8479540000 0.0575780000
H -0.3633590000 -2.1579320000 0.6735520000
