1 0
2 1.69583
3 3.5897
4 4.60889
5 5.09219
6 5.1678
7 5.21827
8 0.411199
