       9
 i =        1, time =        0.900, E =      -546.0586410849
  O       -34.7742174877        75.5249756792       -14.1563378813
  H        35.7169456344       -76.3206619515        13.9476332853
 Al        -0.9557721840         1.0364080506        -0.1043522980
  H        -0.0415037549        -0.0628485431         0.1517851607
  O        -0.1517851607        -0.0557336137         0.1292545509
  O        -0.0438753980        -0.1007948333         0.0830075098
  H         0.0545477921         0.0569194353        -0.0735209372
  O         0.1838023431         0.0059291078        -0.0782642235
  H         0.0094865725        -0.0818216882         0.1019806549
       9
 i =        2, time =        0.950, E =      -546.0621720024
  O        -3.0617912891         6.7034493251        -1.3221910486
  H         3.1400555126        -6.7651120466         1.1941223192
 Al        -0.1980322019         0.2098904176        -0.0533619706
  H        -0.0592910784        -0.0699634725         0.1138388705
  O         0.0415037549        -0.0225306098        -0.0225306098
  O        -0.0450612196        -0.0355746470         0.0723351157
  H         0.0592910784         0.0723351157        -0.0687776510
  O         0.0960515470        -0.0272738961         0.0355746470
  H         0.0272738961        -0.0652201863         0.0509903274
       9
 i =        3, time =        1.000, E =      -546.0604361277
  O        18.7098927032       -42.3184143047         8.2153718246
  H       -19.5281095853        42.9729878103        -8.2450173638
 Al         0.6225563233        -0.5929107841        -0.0403179333
  H        -0.0711492941        -0.0711492941         0.0723351157
  O         0.2324210274         0.0249022529        -0.1695724843
  O        -0.0604769000         0.0415037549         0.0664060078
  H         0.0711492941         0.0735209372        -0.0652201863
  O        -0.0059291078        -0.0770784019         0.1624575548
  H         0.0296455392        -0.0545477921         0.0035574647
       9
 i =        4, time =        1.050, E =      -546.0549784098
  O        33.2966838137       -76.7297703925        15.2615235828
  H       -35.0279833033        78.0792353371       -15.1642862143
 Al         1.5119224995        -1.3684380897        -0.0664060078
  H        -0.0664060078        -0.0711492941         0.0296455392
  O         0.4268957646         0.0996090117        -0.3189860018
  O        -0.1043522980         0.1387411235         0.0735209372
  H         0.0889366176         0.0498045059        -0.0664060078
  O        -0.1316261941        -0.1517851607         0.2917121058
  H         0.0047432863        -0.0462470412        -0.0391321118
       9
 i =        5, time =        1.100, E =      -546.0469432540
  O        43.1224013279      -100.2042941568        20.0712158635
  H       -45.6731035211       102.1881736404       -19.8945284498
 Al         2.3633423854        -2.0407989189        -0.1838023431
  H        -0.0047432863        -0.0391321118        -0.0047432863
  O         0.6261137880         0.2691814960        -0.4019935116
  O        -0.2170053470         0.3344016822         0.0758925804
  H         0.1683866627        -0.1055381196        -0.0936799039
  O        -0.2454650646        -0.3178001803         0.4790719136
  H        -0.1387411235        -0.0853791529        -0.0474328627
       9
 i =        6, time =        1.150, E =      -546.0371167278
  O        48.6068260809      -116.0255255198        23.8765172759
  H       -52.1441318188       118.6604210444       -23.5409297721
 Al         3.3701048968        -2.7724508265        -0.2668098528
  H        -0.0415037549        -0.0438753980        -0.0604769000
  O         0.7612974468         0.3272867528        -0.5371771704
  O        -0.2502083509         0.3687905077         0.0628485431
  H         0.1672008411        -0.0723351157        -0.0830075098
  O        -0.3557464705        -0.3853920097         0.6474585762
  H        -0.1138388705        -0.0581052568        -0.0960515470
       9
 i =        7, time =        1.200, E =      -546.0261310247
  O        51.3579321191      -126.0030281947        26.5967919534
  H       -55.8818414018       129.2438785406       -26.0892603222
 Al         4.4088845906        -3.4519265851        -0.3865778312
  H        -0.0723351157        -0.0438753980        -0.1185821568
  O         0.8822512467         0.4008076901        -0.6640600782
  O        -0.2964553921         0.4067367979         0.0486186843
  H         0.1719441274        -0.0474328627        -0.0735209372
  O        -0.4719569841        -0.4695853410         0.8288892762
  H        -0.0984231902        -0.0332030039        -0.1411127666
       9
 i =        8, time =        1.250, E =      -546.0144366599
  O        52.1915646816      -131.7210597966        28.4893631762
  H       -57.6925909365       135.5145029933       -27.7968433804
 Al         5.4678232510        -4.0756687299        -0.5383629920
  H        -0.1019806549        -0.0403179333        -0.1790590568
  O         0.9901610095         0.4861868430        -0.7814564134
  O        -0.3557464705         0.4470547312         0.0332030039
  H         0.1826165215        -0.0320171823        -0.0652201863
  O        -0.5917249625        -0.5680085312         1.0209923702
  H        -0.0901224392        -0.0118582157        -0.1826165215
       9
 i =        9, time =        1.300, E =      -546.0023591512
  O        51.7018203739      -134.3606986075        29.7487056817
  H       -58.1609904559       138.6533726844       -28.8628969702
 Al         6.5386201271        -4.6413056180        -0.7186078703
  H        -0.1150246921        -0.0249022529        -0.2359784921
  O         1.0850267349         0.5881674978        -0.8917378193
  O        -0.4351965155         0.5063458096         0.0237164314
  H         0.2087045960        -0.0379462902        -0.0604769000
  O        -0.7304660860        -0.6842190449         1.2142812858
  H        -0.0913082608         0.0011858216        -0.2181911686
       9
 i =       10, time =        1.350, E =      -545.9901383237
  O        50.3049225666      -134.7638779407        30.5218613441
  H       -57.6973342228       139.4976776409       -29.4332771445
 Al         7.6117886463        -5.1440939629        -0.9261266448
  H        -0.1328120156        -0.0118582157        -0.2988270352
  O         1.1715917094         0.6960772605        -0.9901610095
  O        -0.5170182037         0.5644510665         0.0094865725
  H         0.2312352058        -0.0486186843        -0.0545477921
  O        -0.8656497448        -0.8051728448         1.4194284171
  H        -0.1055381196         0.0142298588        -0.2490225293
