      18
 i =        1, time =        1.000, E =     -1092.0352176039
  O        -3.2017182342         0.0403179333        -0.5632652449
 Al        -0.9118967860        -2.2269729051         1.3316776211
 Al        -1.2356260741        -0.0000000000         3.3143712831
  O         3.1886741969         4.9342035453        -8.3896875951
  O         8.8675736871        -1.3814821270        -4.8476385708
  O        -5.4014172432         7.8584395325         0.2917121058
  O        -6.8765792740        -7.8548820678        -2.4676946834
  H        -4.0163776515        -0.6284854312         0.2039613097
  H         0.5490353861         1.6494778014         3.6594453595
  H         1.4751620309        -4.1053142691         2.5791619109
  O        -3.1471704420        -8.9185640145        -4.1563045966
  O         4.2203389613        -5.7002442784         7.0378510073
  H        -1.8380234307         0.9403565036         4.9342035453
  H         1.1039998800         5.2425171531        -1.5083650348
  O         9.6217562044         2.9301650950        -3.1614003008
  H        -1.5273381799         3.4104228302        -2.3147237011
  H         2.3384401325         6.7259799349         3.0534905381
  H        -3.2088331636        -2.9159352362         1.0008334036
      18
 i =        2, time =        2.000, E =     -1092.0338478488
  O        -2.6301522383         1.3198194054        -0.0047432863
 Al        -1.0530095526        -2.9894561735         0.9949042957
 Al        -1.2202103937         0.0130440373         3.3475742871
  O         3.1447987989         5.1950842903        -8.1311784932
  O         8.8070967871        -1.3743671976        -4.8120639238
  O        -5.0266976276         7.7505297698         0.1861739862
  O        -7.1173010524        -8.4039174539        -2.3526699913
  H        -4.0057052574        -0.7838280566         0.1589000901
  H         0.6403436468         1.5735852210         3.6784185046
  H         1.5048075701        -4.5476257141         2.7107881049
  O        -3.1649577655        -8.7584781028        -4.0756687299
  O         4.1100575554        -5.6207942333         7.0603816171
  H        -1.8830846503         0.8514198860         4.9306460806
  H         0.7861996997         5.3267104844        -1.9257742268
  O        10.2953028552         3.3250436773        -3.7033207575
  H        -1.5961158308         3.6214990693        -2.3538558129
  H         1.7087688798         6.2267490547         3.2645667773
  H        -3.3025130675        -2.7238321422         1.0292931212
      18
 i =        3, time =        3.000, E =     -1092.0321361524
  O        -2.7096022834         0.7197936919         0.0948657255
 Al        -0.9569580055        -3.4127944733         0.6486443978
 Al        -1.2534133976         0.0616627215         3.4981736262
  O         3.0262166421         5.4085321726        -7.9295888266
  O         8.7335758499        -1.2700148996        -4.7753034552
  O        -4.8440811061         7.5299669581         0.2668098528
  O        -7.4196855523        -8.9031483341        -2.2246012620
  H        -3.9167686398        -0.9047818565         0.0711492941
  H         0.7577399821         1.4502597779         3.7045065791
  H         1.6008591171        -4.6436772611         2.7902381500
  O        -3.2088331636        -8.6055071205        -4.0057052574
  O         4.0495806554        -5.7002442784         7.2074234916
  H        -1.9020577954         0.8952952840         5.0077244825
  H         0.4624704116         5.1025902080        -2.0455422052
  O        11.3044370097         4.4669898474        -3.8456193457
  H        -2.1653101835         3.8100446987        -2.1119482130
  H         1.8344659660         6.5326910193         2.6514970265
  H        -3.3914496851        -2.5376581560         0.9972759389
      18
 i =        4, time =        4.000, E =     -1092.0301473607
  O        -2.6775851010         1.2142812858         0.7933146291
 Al        -0.7601116252        -3.7104356869         0.7114929409
 Al        -1.2083521780         0.1636433764         3.3902638635
  O         2.8744314813         5.6207942333        -7.9817649756
  O         8.7110452401        -1.2664574348        -4.6780660866
  O        -4.9021863630         7.1659197367         0.2798538901
  O        -8.0861172736        -9.3407164928        -2.4273767501
  H        -3.8966096731        -1.0494520879        -0.0557336137
  H         0.9723736859         1.3091470113         3.7471961555
  H         1.8237935719        -3.8918663869         2.6763992794
  O        -3.0534905381        -7.8999432874        -3.8515484535
  O         4.3661950141        -6.1223967567         7.7825469522
  H        -1.8664831484         0.9723736859         5.1476514276
  H         0.3877636528         4.7824183846        -1.6731942327
  O        12.3017129486         6.9050389917        -3.7092498654
  H        -2.9811554225         3.4578556929        -1.5783285073
  H         1.4051985583         4.0543239417         0.4683995194
  H        -3.4104228302        -2.3657140286         0.9581438271
      18
 i =        5, time =        5.000, E =     -1092.0270102919
  O        -1.5569837191         3.0096151401        -1.3921545211
 Al         2.4783670776         0.4375681587         1.7277420249
 Al        -1.3459074799        -0.3249151097         3.2432219891
  O         3.1839309106         4.5001928514        -8.5829765107
  O         8.5580742578        -1.8925712229        -5.2697910491
  O        -5.6243516980         8.1774255344         0.7601116252
  O        -7.2038660269        -6.8066158015        -3.2171339146
  H        -4.0080769005        -1.0707968761        -0.3640472214
  H         0.6711750076         1.0470804447         3.4436258341
  H         2.0823026738        -2.2910072698         2.2340878345
  O        -2.9206785225        -8.9493953753        -4.0175634731
  O         5.1049618511        -5.7678361078         8.8818035459
  H        -1.8783413640         0.9059676781         4.8654258944
  H         0.9332415742         4.0744829084        -1.0458946232
  O         8.1382934226         3.6665602889         1.7360427759
  H        -4.0519522986         1.8285368582        -0.9984617604
  H         0.9937184742         1.9969235209        -2.7297612500
  H        -3.5539072399        -2.5388439775         0.7257227997
      18
 i =        6, time =        6.000, E =     -1092.0400290107
  O        -0.1838023431         8.8557154714         0.7553683389
 Al         4.8511960355         4.1551187750         0.4660278763
 Al        -1.1324595976        -2.4333058580        -0.0865649745
  O         3.5041027341         4.5345816768        -8.5699324734
  O         8.3434405539        -1.7562017425        -5.3243388413
  O        -6.2386072703         8.8319990400         1.6921673778
  O        -4.4041413043        -2.6040641638        -4.5559264651
  H        -3.9167686398        -1.1834499251        -0.5822383900
  H         1.5593553622         1.0980707722         3.5325624517
  H         2.4534648246         0.8739504958         1.0162490840
  O        -2.4546506462        -6.4911872644        -3.0084293185
  O         6.0690347861        -4.4278577357         9.7154361083
  H        -1.5403822171         2.3372543109         5.7429338548
  H         1.9649063385         4.4669898474        -0.1351836588
  O         5.6445106647        -7.8038917404         5.7204032450
  H        -4.6152175435         1.6459203367        -2.4949685795
  H        -6.1982893370        -6.7164933623        -4.3899114455
  H        -3.7068782222        -3.3843347557         0.5063458096
      18
 i =        7, time =        7.000, E =     -1092.0439659149
  O        -0.5798667469         7.2335115661        -1.3399783721
 Al         3.3867063988         1.8913854013        -0.8822512467
 Al        -1.7360427759        -1.3731813760         1.9566055875
  O         3.6416580360         4.4788480631        -8.6707273067
  O         8.2070710736        -1.5996732955        -5.5508307608
  O        -4.5488115356         8.5308003617         1.8676689699
  O        -6.2694386311        -4.7907191356        -2.7392478226
  H        -3.8906805653        -1.1241588467        -0.7458817664
  H         1.2818731152         1.1039998800         3.4459974772
  H         2.9230501656         0.3711621508         1.3387925505
  O        -2.7107881049        -8.2734770814        -3.5064743772
  O         4.9875655159        -3.8610350261         9.1343835399
  H        -1.4301008113         2.8020963657         5.3148522687
  H         2.0206399522         4.2796300397         0.0189731451
  O         5.1725536805        -0.8443049566         5.1950842903
  H        -2.7748224696         0.0059291078        -2.5115700815
  H        -4.3555226200        -5.6777136686        -2.7084164618
  H        -3.3250436773        -3.1554711930         0.3830203665
      18
 i =        8, time =        8.000, E =     -1092.0455219261
  O         0.4221524783         7.3426071503        -2.2412027639
 Al         2.5459589069         0.1992180235        -0.5312480626
 Al        -2.0834884953        -0.8786937820         3.0333315715
  O         3.6416580360         4.5286525690        -8.6730989499
  O         8.0374985893        -1.5747710426        -5.5899628725
  O        -3.9653873241         8.2616188657         1.6257613700
  O        -7.0259927916        -5.6290949843        -1.8344659660
  H        -4.0472090123        -1.1549902074        -0.9735595075
  H         1.1063715231         1.1561760290         3.5052885556
  H         3.0558621813        -0.6747324723         1.7585733857
  O        -2.6443820971        -8.6719131283        -3.6475871438
  O         4.5867578258        -3.4542982282         8.5296145401
  H        -1.6150889759         2.2518751580         4.8820273963
  H         1.5403822171         3.9796171829        -0.3818345450
  O         5.8970906587         3.1163390813         4.2986031848
  H        -2.6989298892        -0.4529838391        -1.8688547915
  H        -3.2361070596        -5.7951100038        -2.3194669874
  H        -3.5183325929        -2.5483305501         0.4280815861
      18
 i =        9, time =        9.000, E =     -1092.0461200862
  O         0.3249151097         8.1145769913        -0.1422985882
 Al         2.6716559932        -0.4600987685        -1.7194412739
 Al        -2.0597720640        -1.4146851309         2.0989041757
  O         3.2538943832         4.5191659964        -8.4228905990
  O         7.9568627227        -1.6115315112        -5.5057695412
  O        -4.0033336143         7.9627918305         1.4312866328
  O        -6.7093784329        -6.7793419054        -0.9059676781
  H        -3.7661693006        -1.1455036349        -0.9534005408
  H         1.0399655153         1.2130954643         3.5527214184
  H         2.3787580658        -0.7672265546         1.4834627818
  O        -2.5601887658        -8.7193459910        -3.8337611300
  O         4.3152046867        -3.3357160714         8.5023406441
  H        -1.7704316013         1.7716174229         4.7195698415
  H         1.5273381799         4.0163776515        -0.7399526586
  O         5.4429209981         4.6164033650         3.6333572850
  H        -2.0241974169        -0.6261137880        -1.5000642838
  H        -2.5317290481        -5.4203903883        -2.1475228600
  H        -3.4875012321        -1.9364466209         0.4482405528
