1 6.84141
2 7.70095
3 8.77505
4 10.023
5 11.9916
6 3.82221
7 1.35176
8 0.375351
9 0
