0.95 1.69911
1.05 0
1.15 2.93467
1.25 6.69941
1.35 9.58415
1.45 11.4146
1.55 13.3628
1.65 18.4956
