15
i = 1, time = 0.950, E = -544.1882751181
O 1.5697520100 0.6893477100 -0.2970991200
H 0.8817496700 1.1423514900 1.0595742700
O 0.1327234200 1.2496133400 1.7511225900
H 0.2747272500 2.0889445800 2.2084649600
H 1.5056002900 -0.9526785500 -0.2358228600
O 1.3157393800 -1.8791663700 -0.1459721700
H 1.7869756300 -2.1676964600 0.6494817400
H 0.4240520500 1.1930821900 -1.2729610100
O -0.5198627500 1.3810534200 -1.6257590700
H -0.5331634900 1.1078914200 -2.5531944800
H 2.4504862200 1.0431426500 -0.4843724100
Na -1.2815039300 0.3964414000 0.2447382600
H -1.7656217100 -2.5102391400 -0.4136935300
O -1.3180818500 -1.8306802700 0.1082257900
H -0.3297757000 -1.9933783700 0.0097743900
15
i = 2, time = 1.050, E = -544.1909828156
O 1.5702210600 0.6797696300 -0.2965539100
H 0.8829071800 1.1351606400 1.0596678200
O 0.1339453400 1.2445683500 1.7509477800
H 0.2777802300 2.0838296600 2.2078438700
H 1.5225855400 -0.8646231600 -0.2438871300
O 1.3101807500 -1.8880532700 -0.1440120900
H 1.7805251300 -2.1772198100 0.6517380600
H 0.4259668000 1.1856072000 -1.2730220000
O -0.5174093900 1.3755734200 -1.6261883800
H -0.5310935600 1.1019065800 -2.5534692400
H 2.4518273400 1.0314016500 -0.4837892700
Na -1.2818533600 0.3938243100 0.2446679300
H -1.7725650400 -2.5120959800 -0.4122165600
O -1.3235855200 -1.8332810900 0.1094329100
H -0.3356360100 -1.9983390800 0.0113475900
15
i = 3, time = 1.150, E = -544.1863061135
O 1.5706900800 0.6701920900 -0.2960087300
H 0.8840646300 1.1279702000 1.0597613700
O 0.1351671900 1.2395236500 1.7507729700
H 0.2808330400 2.0787150200 2.2072228200
H 1.5395698000 -0.7765727600 -0.2519509300
O 1.3046224300 -1.8969396600 -0.1420521100
H 1.7740750000 -2.1867426100 0.6539942400
H 0.4278814500 1.1781326300 -1.2730829800
O -0.5149561700 1.3700937200 -1.6266176700
H -0.5290237600 1.0959220800 -2.5537439900
H 2.4531684000 1.0196613200 -0.4832061800
Na -1.2822027800 0.3912073700 0.2445976000
H -1.7795079800 -2.5139527200 -0.4107396800
O -1.3290888700 -1.8358817700 0.1106399600
H -0.3414959900 -2.0032995200 0.0129207000
15
i = 4, time = 1.250, E = -544.1803066201
O 1.5711965500 0.6606164300 -0.2954728600
H 0.8852526000 1.1207802500 1.0598479200
O 0.1364138800 1.2344769700 1.7505931100
H 0.2839088100 2.0736033400 2.2065970800
H 1.5561247700 -0.6884326000 -0.2599199800
O 1.2991069100 -1.9058419500 -0.1401022400
H 1.7676706200 -2.1962836700 0.6562395600
H 0.4298259500 1.1706624500 -1.2731510800
O -0.5124791900 1.3646181000 -1.6270521700
H -0.5269285900 1.0899416800 -2.5540245100
H 2.4545516300 1.0079276800 -0.4826341000
Na -1.2825323500 0.3885824600 0.2445239800
H -1.7864254300 -2.5158363600 -0.4092669800
O -1.3345663400 -1.8385048700 0.1118425100
H -0.3473233300 -2.0082808600 0.0144871300
15
i = 5, time = 1.350, E = -544.1757095026
O 1.5715781700 0.6510363300 -0.2949060900
H 0.8863386600 1.1135900300 1.0599577600
O 0.1375775900 1.2294378500 1.7504301300
H 0.2869075300 2.0684827900 2.2059870600
H 1.5741067100 -0.6006082100 -0.2682031800
O 1.2934498700 -1.9146895800 -0.1381190900
H 1.7611150400 -2.2057621000 0.6585206500
H 0.4316706400 1.1631790600 -1.2731954800
O -0.5100818400 1.3591299600 -1.6274692300
H -0.5249183000 1.0839487600 -2.5542857600
H 2.4557940900 0.9961739700 -0.4820254100
Na -1.2829279400 0.3859846000 0.2444613400
H -1.7934264700 -2.5176300200 -0.4077806400
O -1.3401290100 -1.8410528000 0.1130598100
H -0.3532582900 -2.0131916000 0.0160755000
15
i = 6, time = 1.450, E = -544.1727924393
O 1.5720592600 0.6414531600 -0.2943634900
H 0.8875084100 1.1063988500 1.0600482100
O 0.1388108900 1.2243964700 1.7502521000
H 0.2899752000 2.0633723300 2.2053617400
H 1.5909870000 -0.5125518800 -0.2762425300
O 1.2878923800 -1.9235834500 -0.1361583600
H 1.7546645300 -2.2152939300 0.6607780800
H 0.4335988200 1.1557033900 -1.2732598700
O -0.5076151400 1.3536530800 -1.6279022700
H -0.5228355800 1.0779658600 -2.5545639900
H 2.4571498300 0.9844244500 -0.4814453000
Na -1.2832701300 0.3833744800 0.2443886600
H -1.8003745900 -2.5194820200 -0.4063024200
O -1.3456345100 -1.8436493200 0.1142673900
H -0.3591199000 -2.0181524100 0.0176494200
15
i = 7, time = 1.550, E = -544.1696878213
O 1.5723483000 0.6318776400 -0.2937743500
H 0.8885164300 1.0992108200 1.0601760600
O 0.1399096600 1.2193603800 1.7501031400
H 0.2929092400 2.0582433300 2.2047660600
H 1.6099904500 -0.4249591000 -0.2847510600
O 1.2821437700 -1.9323864800 -0.1341547000
H 1.7480124100 -2.2247209700 0.6630807700
H 0.4353655300 1.1482141700 -1.2732856600
O -0.5052827200 1.3481554600 -1.6283043800
H -0.5208930300 1.0719647200 -2.5548094000
H 2.4582866800 0.9726689700 -0.4808101300
Na -1.2837153000 0.3807884800 0.2443353700
H -1.8074235700 -2.5212210800 -0.4048087900
O -1.3512493600 -1.8461516000 0.1154935000
H -0.3651220000 -2.0230156800 0.0192509600
15
i = 8, time = 1.650, E = -544.1615082648
O 1.5726373100 0.6223030100 -0.2931852600
H 0.8895243600 1.0920234700 1.0603038900
O 0.1410083300 1.2143247700 1.7499542000
H 0.2958430100 2.0531148000 2.2041704200
H 1.6289921500 -0.3373744600 -0.2932588200
O 1.2763956900 -1.9411886900 -0.1321512400
H 1.7413609000 -2.2341471400 0.6653832400
H 0.4371320800 1.1407256500 -1.2733114600
O -0.5029505200 1.3426583500 -1.6287064500
H -0.5189506700 1.0659641300 -2.5550547800
H 2.4594234300 0.9609145800 -0.4801750100
Na -1.2841604400 0.3782027300 0.2442820900
H -1.8144719000 -2.5229599900 -0.4033153000
O -1.3568636900 -1.8486536600 0.1167195000
H -0.3711235500 -2.0278785000 0.0208523600
