      15
 i =        1, time =        0.950, E =      -544.1882751181
  O         7.0224353269         6.6856620016        -1.5142941426
  H        -3.1756301597        -0.0901224392        -0.2300493842
  O         4.7254989493         8.1193202775         3.2396645243
  H        -1.0292931212        -8.6446392322        -4.9081154708
  H        12.1345121075        58.3851107323        -6.3927640742
  O        -7.4860915601       -62.7655356053        15.1998608613
  H        -4.6851810160         2.2933789129        -8.3813868441
  H        -2.7262037853        -0.6664317213         0.8786937820
  O         3.2942123165        -3.1649577655        -8.8972192263
  H         0.5727518174         3.0155442480         9.4177948947
  H        -9.8020010828        -3.3001414243         2.1498945032
 Na         1.0956991290         1.1253446682        -0.2276777411
  H         4.8500102140         6.6512731761         5.2271014727
  O         3.0025002107        -9.1106671085        -5.6978726352
  H        -8.1382934226         1.4716045661         0.2063329529
      15
 i =        2, time =        1.050, E =      -544.1909828156
  O         8.3790152010         2.1534519679        -2.0170824875
  H        -5.0776879551         0.3083136077         2.4368633227
  O         6.1876169429         8.2011419657         1.6945390210
  H        -1.0245498349        -8.6090645852        -4.8144355669
  H        -3.4365109047       -14.1800543126         3.0048718538
  O         6.2113333743        13.4993927325         5.5496449392
  H        -4.3412927612         3.2918406733        -8.0303836599
  H        -5.4737523589        -0.1897314509        -0.8277034546
  O         5.2567470119        -3.1625861224        -8.0742590579
  H         0.5608936018         2.9123777715         9.3988217496
  H        -9.2399216595        -3.9535291084         2.0218257738
 Na         0.4363823371         0.0889366176        -0.0498045059
  H         4.8986288983         6.6607597486         5.3089231609
  O         0.8466765997        -8.5462160421        -5.7619069999
  H        -4.5677846807         1.4407732054         0.2442792431
      15
 i =        3, time =        1.150, E =      -544.1863061135
  O        10.1043855827        -4.2997890063        -2.5803477324
  H        -7.4125706229         0.7695981978         5.7239607097
  O         7.9568627227         8.2888927618        -0.1861739862
  H        -1.0138774408        -8.5604459009        -4.7005966964
  H        -9.5411203378       -36.4616415793         6.9797457505
  O        10.4138850120        42.0267021989         1.4692329230
  H        -4.2606568946         3.7353379399        -7.8335372796
  H        -8.8652020439         0.3735337940        -2.9491382401
  O         7.6438058287        -3.1483562636        -7.0556383308
  H         0.5514070292         2.7760082912         9.3715478536
  H        -8.5047122872        -4.7693743473         1.8629256837
 Na        -0.3782770803        -1.1692200663         0.1600859117
  H         4.9602916198         6.6631313918         5.3978597785
  O        -1.6969106641        -7.8311656365        -5.8211980783
  H        -0.4292674077         1.2700148996         0.2739247823
      15
 i =        4, time =        1.250, E =      -544.1803066201
  O        12.1949890075       -10.8561964570        -3.2396645243
  H       -10.0640676494         1.3008462603         9.4640419359
  O         9.9668302808         8.3719002716        -2.3301393815
  H        -0.9972759389        -8.5023406441        -4.5689705023
  H       -10.5123082022       -32.4737236454         7.8015200972
  O         9.4759001516        45.4501690663         0.6450869331
  H        -4.4088845906         3.5930393517        -7.7244416953
  H       -12.7143788543         1.0245498349        -5.3599134883
  O        10.3700096140        -3.1400555126        -5.8733742273
  H         0.5407346351         2.6123649148         9.3276724555
  H        -7.7137693012        -5.5769188353         1.6957248425
 Na        -1.1312737761        -2.5590029442         0.3640472214
  H         5.0373700218         6.6595739271         5.4927255039
  O        -4.5488115356        -6.9821173936        -5.8745600489
  H         4.0863411240         0.9877893663         0.2964553921
      15
 i =        5, time =        1.350, E =      -544.1757095026
  O        14.8275128889       -16.8552677705        -4.0258642241
  H       -12.8471908700         1.8522532895        13.3796247541
  O        12.0930083526         8.4252622421        -4.6199608297
  H        -0.9711878644        -8.4169614911        -4.4231144494
  H       -10.4601320532       -20.3795294712         7.4315437680
  O         6.9595867838        40.7472007268         1.2759440074
  H        -4.8037631728         2.9621822774        -7.7671312718
  H       -16.7580304019         1.7004681288        -7.8868992502
  O        13.2693433483        -3.1270114754        -4.5950585768
  H         0.5324338841         2.4297483933         9.2671955556
  H        -6.9963472524        -5.9966996704         1.5439396818
 Na        -1.4478881348        -4.0543239417         0.4956734155
  H         5.1144484237         6.6358574957         5.5816621216
  O        -7.5702848914        -6.0393892469        -5.9125063391
  H         8.8936617616         0.6213705017         0.3047561430
      15
 i =        6, time =        1.450, E =      -544.1727924393
  O        18.4015790955       -15.8994955865        -5.1061476727
  H       -15.7394096748         2.4783670776        17.4825673801
  O        14.2144431381         8.4679518186        -6.9026673485
  H        -0.9427281467        -8.3280248735        -4.2772583965
  H        -9.8031869044       -13.2551134894         6.5943537408
  O         3.6523304301        32.7737365022         2.6135507363
  H        -5.3278963060         2.0882317816        -7.8667402835
  H       -20.9676969691         2.4700663266       -10.5443253845
  O        16.1746061904        -3.1175249028        -3.3013272459
  H         0.5229473116         2.2364594776         9.1972320830
  H        -6.3643043566        -5.7761368587         1.4087560230
 Na        -2.1072049267        -5.5994494451         0.6901481527
  H         5.1867835393         6.6026544918         5.6646696313
  O       -10.5632985296        -5.0599006315        -5.9480809861
  H        13.5942584579         0.1292545509         0.3166143587
      15
 i =        7, time =        1.550, E =      -544.1696878213
  O        22.4974067921         5.5259285079        -6.5421775918
  H       -18.5000022856         3.0641629323        21.4100084140
  O        16.1912076923         8.4809958558        -9.0454469223
  H        -0.9107109644        -8.2118143598        -4.1231015927
  H        -9.2529656967       -26.5232710161         5.8686309411
  O         0.3106852509        23.7650500485         4.1278448789
  H        -5.8354279372         1.1336454192        -7.9106156815
  H       -24.9840746206         3.2266204871       -13.0938417562
  O        18.8853942953        -3.1009234009        -2.0823026738
  H         0.5182040253         2.0467280267         9.1201536811
  H        -5.9030197665        -4.3863539808         1.3067753682
 Na        -2.8234411539        -7.0402226505         0.8952952840
  H         5.2425171531         6.5492925212         5.7251465313
  O       -13.3404926423        -4.1171724848        -5.9634966665
  H        17.8549153525        -0.3593039352         0.3249151097
      15
 i =        8, time =        1.650, E =      -544.1615082648
  O        24.3947213012        68.1278207367        -7.8015200972
  H       -20.9795551847         3.5811811360        24.9271551853
  O        17.9438519701         8.4857391421       -10.9451330746
  H        -0.8834370683        -8.1003471324        -3.9831746476
  H        -6.8078016231       -84.0202013939         5.1962701119
  O        -2.6396388108        16.4663182961         5.3860015628
  H        -6.2504654860         0.3474457195        -7.9153589678
  H       -28.5866005448         3.9132111751       -15.3729908103
  O        21.2914262572        -3.0890651852        -0.9913468310
  H         0.5170182037         1.8735980778         9.0478185654
  H        -5.6516255941        -1.7016539504         1.2522275760
 Na        -3.4282101537        -8.3054942637         1.0790976271
  H         5.2875783726         6.4911872644         5.7725793940
  O       -15.7109499572        -3.2847257439        -5.9706115959
  H        21.4550696336        -0.7684123762         0.3344016822
