      21
 i =        1, time =        1.000, E =      -696.8117944026
  O        -5.5520165824         2.6479395618       -10.5312813473
  H        37.7731602337        -4.7812325630        -7.0331077210
  O       -46.1094858582         3.5218900576        20.4755810183
  H        14.3460693322         3.2076473420       -12.4380824289
  H         7.4434019836       -13.6227181756        -4.4764764200
  O        13.3879255051        25.9588199497       -10.0782975082
  H       -21.7384809884        -6.1461131880         6.1793161919
  H         5.8662592979        -4.5191659964        -5.4464784628
  O       -10.5775283884         6.4069939330         7.7042827287
  H         0.2359784921       -10.6676508276         0.6676175429
  H        -0.1304403725       -12.4309674995        -9.5351912300
  O         4.5832003611        14.9152636849        31.8736979319
  H         0.1375553019         1.9376324425       -24.1314689130
  H         9.5162180849        -7.3212623621         4.6021735062
 Na        -3.8076730555         1.2569708623         7.0663107250
  H        -0.4636562332        -1.1146722741       -35.8675449736
  O        -9.5328195868        -7.0544525093        44.0995183001
  H        10.5704134590         6.3998790036        -0.2253060980
  H        -0.8217743468        18.8865801169        -3.4708997301
  O       -24.2559801777       -13.4661897286        16.4022839315
  H        19.1308593599        -4.0151918300       -15.8366470434
      21
 i =        2, time =        2.000, E =      -696.8105598985
  O        -9.1059238223         1.5142941426        -5.1523947139
  H        37.7802751631        -4.0128201868        -7.3580228307
  O       -46.7237414306         4.5322100337        21.7776131002
  H        14.5381724262         1.5012501054       -13.1365313326
  H         6.7070067898       -13.5088793050        -3.6772326830
  O        15.5982969082        26.1260207908       -10.8585681001
  H       -23.0737160742        -5.8022249332         6.1295116861
  H         8.9150065498        -1.7241845602       -10.6854381511
  O        -9.9609011730        -1.6886099131         9.4948732966
  H        -0.3604897567        -9.4106799653         0.2229344548
  H        -0.1802448784       -12.0704777428        -8.6790280577
  O         3.7756558732        13.5053218403        30.1578141227
  H         0.4790719136         1.5629128269       -23.3915162545
  H         9.2849828791        -7.3331205778         4.6223324729
 Na        -3.5788094929         7.7220700522         5.4132754589
  H        -1.4692329230         0.0533619706       -35.9588532344
  O        -6.8670927015        -9.6964629632        44.0141391472
  H        10.1162437984         7.4351012327        -0.0059291078
  H        -1.9032436170        18.0790356289        -4.9602916198
  O       -23.6274947466       -12.3384734172        16.7580304019
  H        19.6561783146        -4.4456450592       -14.7279038772
      21
 i =        3, time =        3.000, E =      -696.8145685372
  O        -7.7564588777         3.0795786126        -5.9136921607
  H        22.4215142117        -5.6824569549        -6.3678618213
  O       -29.9597819208         4.3555226200        19.3941117481
  H        12.5791951956         3.1661435871       -12.4890727564
  H         7.8809701423       -13.0523380013        -3.2159480930
  O        13.2195388424        27.2217199198       -12.1807591486
  H       -21.9258407962        -6.8635352368         8.2201151108
  H         6.7034493251        -3.3558750380        -9.2339925516
  O        -1.4182425956         2.7914239716         8.1311784932
  H        -4.5974302199        -8.4525361382         0.2146337038
  H        -0.1316261941       -12.7890856131        -6.8327038760
  O         5.1808544315        13.9215452108        30.1246111188
  H         0.2585091019         1.2261395015       -22.9788503487
  H         9.0988088929        -7.1765921308         5.4701948941
 Na        -8.4122182049         2.0313123463        -2.1819116855
  H        -0.6699891860        -0.4079226195       -36.8695641987
  O        -7.7007252639        -8.6636123773        46.2755008778
  H         9.8838227710         7.1481324132        -0.5466637429
  H        -3.6464013222        17.1019186567        -5.5508307608
  O       -18.2225200387       -11.1064048078        17.8335705643
  H        17.2145717057        -4.4942637435       -11.2996937235
      21
 i =        4, time =        4.000, E =      -696.8063850570
  O        -6.3583752487         4.7100832689         3.6037117458
  H        30.9926325067        -3.5705087419        -8.3932450598
  O       -40.6369193209         4.5689705023        23.0772735389
  H        14.0721445499         0.5715659959       -13.6464346069
  H         5.0907319923       -13.9772788245        -0.1434844098
  O        17.0141678607        26.2410454829       -10.9320890373
  H       -20.7684789456        -4.8559393218         6.4081797546
  H         5.8461003313        -3.3214862126        -5.4512217491
  O        -8.0861172736         1.7277420249         5.1689962158
  H        -1.1277163114        -9.1260827889         0.7873855213
  H        -0.0047432863       -12.2329352976       -30.6155412480
  O         0.3913211175         7.5347102444        28.5794856154
  H         0.7850138782         4.1029426260       -10.0593243631
  H         9.2968410948        -7.2204675288         3.3001414243
 Na        -3.8456193457         5.0077244825         0.8893661762
  H        -0.9249408232        -0.9273124663       -32.4417064631
  O        -8.5806048676        -7.3105899680        41.8464573205
  H        11.6056356881         6.6002828486        -0.2312352058
  H        -3.1056666871        17.2869068213        -5.3670284177
  O       -20.9024767828       -11.3767721254        17.1493515194
  H        19.2446982305        -4.4314152004       -13.5314099148
      21
 i =        5, time =        5.000, E =      -696.8114559959
  O        -5.6065643745         5.8306846509         0.1043522980
  H        29.4724092563        -2.6384529893        -8.2331591481
  O       -39.2874543763         2.0882317816        22.7381285704
  H        13.9725355382         1.5890009014       -13.6227181756
  H         5.8650734764       -13.7519727265        -2.5661178736
  O        15.5982969082        25.1832926440       -11.2641190764
  H       -20.9226357495        -5.5792904784         6.0571765704
  H         2.3431834188        -3.5301908086        -0.9225691801
  O        -2.0799310306        -0.4992308802         3.8183454496
  H        -3.2301779518        -7.9568627227         0.9759311506
  H        -1.0956991290       -12.6040974485       -31.6768515516
  O         3.1234540107         8.5912772617        36.3964213930
  H         1.2178387506         3.8752648849       -13.5385248442
  H         8.4987831794        -7.6615931522         3.0843218989
 Na        -6.5255760899         8.5438443989        -0.7719698409
  H        -1.2510417545        -0.4873726645       -38.3447262296
  O        -7.9556769011        -8.0825598089        48.6850903044
  H        11.0660868745         6.4330820075        -0.6771041154
  H        -5.1476514276        16.6821378216        -7.7932193463
  O       -17.6462107565       -10.6676508276        17.4624084134
  H        19.5909581284        -5.3610993099        -9.9122824887
      21
 i =        6, time =        6.000, E =      -696.8060335569
  O       -15.4299102455         6.7544396525        16.9062580980
  H        29.7392191091        -3.8717074202        -7.9746500462
  O       -39.3467454547         4.0792261946        22.4037268882
  H        13.4211285090         1.0601244820       -13.5740994913
  H         4.2760725750       -14.1029759107         0.1375553019
  O        19.5304812284        24.8844656089       -10.4589462316
  H       -22.6657934547        -4.1942508868         5.9836556332
  H        10.0237497161         0.9012243918       -15.7062066709
  O        -2.8080254735        -0.2430934215        -0.1458560529
  H        -2.6218514873        -8.4098465617         1.1146722741
  H        -0.3261009313       -12.3479599898       -31.6460201908
  O         1.9625346954         5.3148522687        37.9190162866
  H         0.1838023431         4.0389082613       -15.7726126787
  H         8.9482095537        -7.2097951347         3.8207170928
 Na        -3.6890908987         2.7914239716        -1.4716045661
  H        -1.6565927308        -0.0391321118       -36.9252978125
  O        -6.1508564743        -9.2612664477        46.3395352425
  H        10.8573822785         7.6532924012         0.1695724843
  H        -4.6164033650        17.1778112371        -5.8271271862
  O       -18.8759077227       -10.1257303709        16.9181163136
  H        19.2423265873        -4.8523818571       -12.2104046878
      21
 i =        7, time =        7.000, E =      -696.8067678529
  O       -27.2288348492        -1.8569965758        41.3804294442
  H        29.3277390249        -3.8396902379        -7.4457736268
  O       -38.0814738415         2.9811554225        22.3456216313
  H        11.9957709840         1.9281458699       -13.9891370402
  H         4.4444592376       -13.7116547932        -0.3391449685
  O        13.8764839912        24.8666782853       -10.1245445494
  H       -17.8145974192        -4.8998147198         5.1559521786
  H        20.0724016851         6.2801110252       -41.0768591228
  O         2.3170953443        -3.8871231006        -1.2356260741
  H        -4.5606697513        -7.7908477031         1.1561760290
  H        -0.7945004507       -12.0799643153       -28.1680055312
  O         4.9792647649         8.0327553030        32.9219641982
  H        -0.4767002704         4.1444463809       -13.2954314228
  H         8.6541258048        -6.3607468919         4.1444463809
 Na        -5.1369790335         5.3444978079         2.4997118658
  H        -1.5474971465        -1.1893790329       -38.4751666021
  O        -6.8125449094        -6.9394278172        49.2447980846
  H        11.5333005724         6.3382162821         0.1375553019
  H        -4.9614774414        17.1244492665        -6.8030583368
  O       -18.9458711953        -9.4569270065        18.0090721564
  H        19.1616907207        -5.0255118061       -16.0417941747
      21
 i =        8, time =        8.000, E =      -696.7959714970
  O       -57.0676629700        -2.7783799343        82.5912864042
  H        26.5339434102        -7.7837327737        -3.2882832086
  O       -31.5392962496         2.9005195558        21.2392501082
  H         8.2805920108         6.0156728155       -17.8311989212
  H         4.3899114455       -13.6025592089        -3.5266333439
  O        15.0599339163        25.0599672010        -5.2567470119
  H       -18.2438648269        -4.5571122866         7.0153203975
  H        52.0990705993         8.3126091931       -77.9274501764
  O        -0.2774822470        -4.8618684297        -5.1239349962
  H         1.3814821270        -8.2153718246         1.7988913190
  H         1.9400040856        -8.0351269462         1.8427667170
  O         4.0887127672         8.9304222302        19.4012266775
  H        -0.0011858216        -2.1178773208       -28.9162589408
  H         6.5647082016        -8.1963986795         2.3479267051
 Na       -14.7231605909        14.0318266166         2.3906162815
  H        -1.9257742268        -0.0320171823       -38.9791407686
  O        -7.1078144798        -6.6690604996        50.6369526056
  H        12.0408322036         4.4859629925        -0.2798538901
  H        -5.7014300999        17.1967843822        -6.9275696015
  O       -13.2598567757       -14.7053732674         8.5782332244
  H        17.4671516997        -5.3788866334        -9.7818421162
