1 1.7408
2 2.51546
3 0
4 5.13521
5 1.95315
6 5.35578
7 4.895
8 11.6698
