0.90 3.74027
1.00 0
1.10 4.9785
1.20 13.2805
1.30 22.0896
1.40 29.9744
