18      
 i =        1, time =        0.900, E =      -458.6643434148
  O        -1.2290578100        -1.8978848400        -0.2177194700
  H        -1.9585604800        -2.5121937600        -0.3667772500
  H        -1.5992227700        -1.0775519900        -0.2233692300
  O         1.0428434800        -1.1318131100         1.4551940000
  H         1.4245562400        -1.1371487300         0.5509118100
  H         0.2191229600        -1.6278176700         1.3074120600
  O         0.2633984900         1.4317973700         1.4981373600
  H         0.5921466100         0.4987824400         1.6041034900
  H         0.4837685400         1.8868094200         2.3200696700
  O         1.3565039400        -1.0437594300        -1.3362815900
  H         0.4802584000        -1.4666650300        -1.3145645900
  H         1.1541413100        -0.1044181000        -1.4974190200
  O         0.5846781800         1.7734032200        -1.2496004900
  H         1.0844259000         2.5111059900        -1.6217362700
  H         0.6601652200         1.8654055800        -0.2776996400
  O        -1.9763724900         0.7557474000        -0.1694433800
  H        -1.5120956400         1.1678508300        -0.9160652700
  H        -1.4541936200         1.0727763200         0.5904868800
18      
 i =        2, time =        1.000, E =      -458.6703039071
  O        -1.2211376400        -1.9064388400        -0.2172565500
  H        -1.9488589600        -2.5228709300        -0.3662385800
  H        -1.6352283600        -0.9962276300        -0.2239217800
  O         1.0482841200        -1.1333610000         1.4557880100
  H         1.4301607100        -1.1378970000         0.5515708800
  H         0.2260081100        -1.6317577600         1.3080283400
  O         0.2615285300         1.4280230800         1.4977816700
  H         0.5929166700         0.4959857600         1.6041008900
  H         0.4804623700         1.8839226600         2.3196047700
  O         1.3621582500        -1.0453048900        -1.3356634800
  H         0.4871208200        -1.4706988400        -1.3139563300
  H         1.1571459300        -0.1065985000        -1.4971350800
  O         0.5822916500         1.7696652800        -1.2500119800
  H         1.0799949900         2.5086689200        -1.6223010300
  H         0.6573533300         1.8621925200        -0.2781281700
  O        -1.9760206700         0.7450596900        -0.1699536400
  H        -1.5127970600         1.1582455600        -0.9166304200
  H        -1.4548763400         1.0638177800         0.5899615900
18      
 i =        3, time =        1.100, E =      -458.6623701660
  O        -1.2132180900        -1.9149921600        -0.2167936700
  H        -1.9391582000        -2.5335472500        -0.3656999500
  H        -1.6712311000        -0.9149096300        -0.2244742900
  O         1.0537243400        -1.1349087600         1.4563819700
  H         1.4357647300        -1.1386452000         0.5522298900
  H         0.2328927100        -1.6356975500         1.3086445700
  O         0.2596587300         1.4242490900         1.4974260100
  H         0.5936866700         0.4931893100         1.6040982900
  H         0.4771564600         1.8810361400         2.3191399100
  O         1.3678121200        -1.0468502200        -1.3350454300
  H         0.4939827000        -1.4747323300        -1.3133481200
  H         1.1601503100        -0.1087787200        -1.4968511700
  O         0.5799053100         1.7659276400        -1.2504234300
  H         1.0755644300         2.5062320400        -1.6228657300
  H         0.6545416600         1.8589797100        -0.2785566800
  O        -1.9756688900         0.7343728100        -0.1704638700
  H        -1.5134984200         1.1486410400        -0.9171955300
  H        -1.4555590200         1.0548599400         0.5894363300
18      
 i =        4, time =        1.200, E =      -458.6491401560
  O        -1.2053473700        -1.9235799400        -0.2163381900
  H        -1.9295147900        -2.5442639300        -0.3651700300
  H        -1.7066758900        -0.8333526500        -0.2249502300
  O         1.0591424900        -1.1364841800         1.4569721200
  H         1.4413497200        -1.1394221000         0.5528854200
  H         0.2397458600        -1.6396695000         1.3092556400
  O         0.2577610500         1.4204758500         1.4970671200
  H         0.5944315300         0.4903833000         1.6040923300
  H         0.4738263700         1.8781555200         2.3186725100
  O         1.3734442000        -1.0484243600        -1.3344312100
  H         0.5008131100        -1.4787982000        -1.3127450900
  H         1.1631314600        -0.1109775500        -1.4965708000
  O         0.5774917500         1.7621923300        -1.2508379700
  H         1.0711122400         2.5038046300        -1.6234325100
  H         0.6517047500         1.8557707500        -0.2789879400
  O        -1.9753713200         0.7236808000        -0.1709808100
  H        -1.5142495100         1.1390348400        -0.9177666500
  H        -1.4562892000         1.0459002900         0.5889053400
18      
 i =        5, time =        1.300, E =      -458.6351018812
  O        -1.1973305700        -1.9320612700        -0.2158604100
  H        -1.9196999300        -2.5548557900        -0.3646138500
  H        -1.7438027900        -0.7525392900        -0.2256580700
  O         1.0646262000        -1.1379754400         1.4575736600
  H         1.4469910300        -1.1401118900         0.5535513500
  H         0.2466926800        -1.6435430400         1.3098822000
  O         0.2559482800         1.4167012500         1.4967180800
  H         0.5952523900         0.4876069200         1.6040965500
  H         0.4705703400         1.8752576900         2.3182129000
  O         1.3791409400        -1.0499108500        -1.3338055200
  H         0.5077372600        -1.4827650000        -1.3121265000
  H         1.1661822800        -0.1131194800        -1.4962797600
  O         0.5751612600         1.7584508500        -1.2512430800
  H         1.0667266500         2.5013491100        -1.6239928900
  H         0.6489450000         1.8525508900        -0.2794107300
  O        -1.9749095500         0.7130069000        -0.1714772900
  H        -1.5148497500         1.1294360300        -0.9183194300
  H        -1.4568752700         1.0369482900         0.5883918700
18      
 i =        6, time =        1.400, E =      -458.6225366679
  O        -1.1894163800        -1.9406306100        -0.2153990100
  H        -1.9100036700        -2.5655536000        -0.3640769200
  H        -1.7796118400        -0.6711610500        -0.2261852400
  O         1.0700639900        -1.1395246600         1.4581673600
  H         1.4525937700        -1.1408604100         0.5542103100
  H         0.2535748600        -1.6474898500         1.3104978500
  O         0.2540612400         1.4129296600         1.4963605600
  H         0.5960106700         0.4848117800         1.6040927100
  H         0.4672456100         1.8723766200         2.3177461600
  O         1.3847928700        -1.0514579900        -1.3331876800
  H         0.5145967000        -1.4868057900        -1.3115188900
  H         1.1691795500        -0.1152998300        -1.4959966100
  O         0.5727569600         1.7547160900        -1.2516564600
  H         1.0622760000         2.4989194300        -1.6245595300
  H         0.6461151400         1.8493423400        -0.2798411000
  O        -1.9745782800         0.7023083000        -0.1719906300
  H        -1.5155722700         1.1198226800        -0.9188875600
  H        -1.4575784800         1.0279827800         0.5878637400
