18      
 i =        1, time =        0.900, E =      -458.6643434148
  O        33.8789222037      -102.4763282815        -1.2439268251
  H         8.2011419657         2.2530609796         1.3565798740
  H       -41.3875443736       100.3133897411         0.1446702313
  O        -5.7891808960        -2.7546635029        -9.1284544321
  H        -0.1304403725         0.9391706820         5.1832260746
  H         5.0492282374         3.5029169125         2.5507021932
  O         4.4207428063        -0.8170310605         8.2165576461
  H        -1.6032307602         1.4336582760        -2.5435872638
  H        -2.3858729952        -1.8759697209        -6.7532538309
  O       -11.1953414255         4.5262809259         0.0118582157
  H         7.0153203975         1.1206013820         0.2300493842
  H         3.0214733558        -4.9460617610         1.2285111447
  O         5.4547792138         7.6106028248         4.4575032749
  H        -4.3472218691        -6.3263580664         1.0281072996
  H        -2.2364594776        -2.6586119559        -4.6638362278
  O        10.2964886768         6.6417866035        -0.5004167018
  H        -3.8147879849        -3.5124034850         4.4266719141
  H        -4.4492025239        -2.9740404931        -3.9997761496
18      
 i =        2, time =        1.000, E =      -458.6703039071
  O       -14.7409479144        13.5432681305        -1.4550030642
  H         6.6168843506         3.5112176635         1.1917506760
  H         9.6680032456       -15.3552034867         0.6320428959
  O        -5.4998404334        -2.1427795738        -8.9114490851
  H        -0.2620665666         0.8182168821         5.1535805354
  H         4.3863539808         3.2693100636         2.0419847405
  O         3.8313894869        -0.5454779214         7.9058723952
  H        -1.3352350858         0.6984489037        -2.5684895167
  H        -2.4190759991        -1.8617398621        -6.7378381506
  O       -10.8395949550         5.0077244825        -0.1268829078
  H         6.1935460508         0.7814564134         0.6284854312
  H         3.1649577655        -5.3350112354         1.2071663564
  O         4.9116729355         7.7208842306         4.6555354768
  H        -4.3365494749        -6.3334729958         0.9794886153
  H        -1.9364466209        -2.6740276363        -4.6579071199
  O         9.7498249338         5.1796686099        -0.6249279664
  H        -3.3748481831        -3.4400683694         3.6558878948
  H        -3.7792133379        -2.8436001206        -2.9704830284
18      
 i =        3, time =        1.100, E =      -458.6623701660
  O       -36.3122280617        66.5115459393        -1.4467023132
  H         5.4796814667         4.5606697513         1.0802834486
  H        33.1365979020       -64.8715547104         0.9569580055
  O        -5.1322357472        -1.3755530191        -8.6221086224
  H        -0.4316390508         0.6533876841         5.1144484237
  H         3.5930393517         2.9692972068         1.4063843799
  O         3.0534905381        -0.1992180235         7.5015072405
  H        -1.0103199761        -0.2253060980        -2.6123649148
  H        -2.4676946834        -1.8534391111        -6.7319090427
  O       -10.3866111159         5.6373957353        -0.3047561430
  H         5.1903410040         0.3367733254         1.1348312408
  H         3.3546892165        -5.8330562940         1.1704058878
  O         4.1942508868         7.8584395325         4.9223453296
  H        -4.3329920102        -6.3394021036         0.9178258938
  H        -1.5368247524        -2.7001157108        -4.6519780121
  O         9.1284544321         1.2818731152        -0.8336325625
  H        -2.7024873539        -3.5444206674         2.5174991893
  H        -2.8139545814        -2.8661307304        -1.5190374289
18      
 i =        4, time =        1.200, E =      -458.6491401560
  O       -43.4437589729        85.8736405050        -1.3459074799
  H         4.8701691806         5.2911358373         1.0304789428
  H        41.7598923460       -78.5298475331         1.2095379996
  O        -4.7077116258        -0.4138517273        -8.2628046873
  H        -0.6284854312         0.4446830881         5.0705730257
  H         2.6752134579         2.5839051971         0.6474585762
  O         2.0787452091         0.2146337038         6.9844890367
  H        -0.6106981076        -1.3755530191        -2.6669127069
  H        -2.5341006913        -1.8332801445        -6.7176791839
  O        -9.8565488750         6.4247812566        -0.5288764194
  H         4.0329791535        -0.2170053470         1.7348569543
  H         3.5657654556        -6.4650991899         1.1455036349
  O         3.3119996400         8.0291978383         5.2484462609
  H        -4.3389211181        -6.3512603193         0.8443049566
  H        -1.0458946232        -2.7297612500        -4.6460489042
  O         8.2675479736        -4.2393121063        -1.1277163114
  H        -1.8510674680        -3.7163647948         1.0126916193
  H        -1.5463113249        -2.9906419950         0.3699763293
18      
 i =        5, time =        1.300, E =      -458.6351018812
  O       -43.6797374650        88.1017992316        -1.2712007211
  H         4.8262937826         5.5188135784         1.0352222290
  H        43.2706290239       -73.7841896171         1.4763478524
  O        -4.1918792436         0.7174220488        -7.8335372796
  H        -0.8490482428         0.2004038450         5.0124677688
  H         1.6139031543         2.1060191051        -0.2193769901
  O         0.9237550016         0.7209795135         6.3631185350
  H        -0.1316261941        -2.7345045363        -2.7190888559
  H        -2.6099932716        -1.7965196758        -6.6844761800
  O        -9.2090902987         7.3200765406        -0.7838280566
  H         2.7143455696        -0.8846228899         2.4095894266
  H         3.7886999104        -7.1552473426         1.1229730251
  O         2.2661050168         8.1904695716         5.6326524490
  H        -4.3389211181        -6.3394021036         0.7494392311
  H        -0.4790719136        -2.7629642539        -4.6306332239
  O         6.9168972074       -10.3059752493        -1.5273381799
  H        -0.8122877742        -3.9357417849        -0.8122877742
  H        -0.0201589667        -3.1768159812         2.6823283873
18      
 i =        6, time =        1.400, E =      -458.6225366679
  O       -40.1471750133        81.8857225711        -1.1751491741
  H         5.2354022236         5.5508307608         1.0933274859
  H        40.8586679542       -59.9598817749         1.7265562033
  O        -3.6440296791         2.0040384503        -7.3532795445
  H        -1.1004424153        -0.0723351157         4.9401326532
  H         0.4683995194         1.5486829681        -1.1858215682
  O        -0.3877636528         1.2664574348         5.6480681294
  H         0.4031793332        -4.2487986789        -2.7771941127
  H        -2.7001157108        -1.7550159209        -6.6489015329
  O        -8.5106413950         8.3529271265        -1.0672394114
  H         1.2925455093        -1.6542210877         3.1566570146
  H         4.0400940829        -7.9450045070         1.1004424153
  O         1.0945133075         8.3766435578         6.0607340351
  H        -4.3507793338        -6.3358446389         0.6474585762
  H         0.1577142686        -2.7997247225        -4.6128459003
  O         5.1749253237       -16.6453773529        -2.0052242718
  H         0.3723479724        -4.1634195260        -2.9467665970
  H         1.7443435268        -3.4068653655         5.3978597785
