3       
 i =        1, time =       85.000, E =       -76.4214103553
  O        -0.0000000000        -0.0000000000       -49.2139667238
  H        32.4618654297        -0.0000000000        24.6069833619
  H       -32.4618654297        -0.0000000000        24.6069833619
3       
 i =        2, time =       90.000, E =       -76.4261078367
  O        -0.0000000000        -0.0000000000       -40.9298172483
  H        21.1752157435        -0.0000000000        20.4649086241
  H       -21.1752157435        -0.0000000000        20.4649086241
3       
 i =        3, time =       95.000, E =       -76.4293408482
  O        -0.0000000000        -0.0000000000       -33.6607310352
  H         9.4581128280        -0.0000000000        16.8303655176
  H        -9.4581128280        -0.0000000000        16.8303655176
3       
 i =        4, time =      100.000, E =       -76.4312805439
  O        -0.0000000000        -0.0000000000       -12.3479599898
  H         7.7078401934        -0.0000000000         6.1745729057
  H        -7.7078401934        -0.0000000000         6.1745729057
3       
 i =        5, time =      105.000, E =       -76.4319496950
  O        -0.0000000000        -0.0000000000        -0.7589258037
  H         0.3450740763        -0.0000000000         0.3794629018
  H        -0.3450740763        -0.0000000000         0.3794629018
3       
 i =        6, time =      110.000, E =       -76.4314366521
  O        -0.0000000000        -0.0000000000         8.7525489949
  H        -7.6663364385        -0.0000000000        -4.3756815867
  H         7.6663364385        -0.0000000000        -4.3756815867
3       
 i =        7, time =      115.000, E =       -76.4295434217
  O        -0.0000000000        -0.0000000000         9.1260827889
  H       -22.4120276391        -0.0000000000        -4.5630413945
  H        22.4120276391        -0.0000000000        -4.5630413945
3       
 i =        8, time =      120.000, E =       -76.4270152371
  O        -0.0000000000        -0.0000000000        21.0435895494
  H       -26.4485642573        -0.0000000000       -10.5217947747
  H        26.4485642573        -0.0000000000       -10.5217947747
3       
 i =        9, time =      125.000, E =       -76.4235815793
  O        -0.0000000000        -0.0000000000        30.0925939364
  H       -31.2523274301        -0.0000000000       -15.0468898790
  H        31.2523274301        -0.0000000000       -15.0468898790
3       
 i =       10, time =      130.000, E =       -76.4187707203
  O        -0.0000000000        -0.0000000000        30.9025100675
  H       -42.9741736319        -0.0000000000       -15.4512550338
  H        42.9741736319        -0.0000000000       -15.4512550338
