85 6.61354
90 3.66582
95 1.63708
100 0.419899
105 0
110 0.321939
115 1.50996
120 3.09642
125 5.25107
130 8.26993
