0.85 18.828
0.90 4.80273
0.95 0
1.00 1.788
1.05 8.24124
1.10 17.9458
1.15 29.8606
1.20 43.2188
1.25 57.4585
1.30 72.1702
1.35 87.0576
1.40 101.908
