3       
 i =        1, time =        0.850, E =       -76.4017868400
  O        -0.0000000000        -0.0000000000       223.9708628739
  H       162.8358319249        -0.0000000000      -111.9854314369
  H      -162.8358319249         0.0000000000      -111.9854314369
3       
 i =        2, time =        0.900, E =       -76.4241374799
  O        -0.0000000000        -0.0000000000       100.4651749018
  H        73.6596783524        -0.0000000000       -50.2325874509
  H       -73.6596783524        -0.0000000000       -50.2325874509
3       
 i =        3, time =        0.950, E =       -76.4317911243
  O        -0.0000000000        -0.0000000000        12.7321661779
  H         9.4403255045        -0.0000000000        -6.3666759997
  H        -9.4403255045        -0.0000000000        -6.3666759997
3       
 i =        4, time =        1.000, E =       -76.4289417683
  O        -0.0000000000        -0.0000000000       -49.1440032513
  H       -36.5055169773        -0.0000000000        24.5714087149
  H        36.5055169773        -0.0000000000        24.5714087149
3       
 i =        5, time =        1.050, E =       -76.4186578809
  O        -0.0000000000        -0.0000000000       -92.2249008243
  H       -68.9602674776        -0.0000000000        46.1118575014
  H        68.9602674776        -0.0000000000        46.1118575014
3       
 i =        6, time =        1.100, E =       -76.4031926250
  O        -0.0000000000        -0.0000000000      -121.6368331806
  H       -91.4304003736        -0.0000000000        60.8184165903
  H        91.4304003736        -0.0000000000        60.8184165903
3       
 i =        7, time =        1.150, E =       -76.3842052078
  O        -0.0000000000        -0.0000000000      -141.0902360070
  H      -106.4891484683        -0.0000000000        70.5445250927
  H       106.4891484683        -0.0000000000        70.5445250927
3       
 i =        8, time =        1.200, E =       -76.3629175630
  O        -0.0000000000        -0.0000000000      -153.3421444498
  H      -116.0741442041        -0.0000000000        76.6704793141
  H       116.0741442041        -0.0000000000        76.6704793141
3       
 i =        9, time =        1.250, E =       -76.3402252159
  O        -0.0000000000        -0.0000000000      -160.3859245649
  H      -121.6226033218        -0.0000000000        80.1923693717
  H       121.6226033218        -0.0000000000        80.1923693717
3       
 i =       10, time =        1.300, E =       -76.3167805284
  O        -0.0000000000        -0.0000000000      -163.7109682422
  H      -124.2278533071        -0.0000000000        81.8560770319
  H       124.2278533071        -0.0000000000        81.8560770319
3       
 i =       11, time =        1.350, E =       -76.2930559657
  O        -0.0000000000        -0.0000000000      -164.3868865361
  H      -124.6962528266        -0.0000000000        82.1940361788
  H       124.6962528266        -0.0000000000        82.1940361788
3       
 i =       12, time =        1.400, E =       -76.2693896470
  O        -0.0000000000        -0.0000000000      -163.1892067522
  H      -123.6278275936        -0.0000000000        81.5940104653
  H       123.6278275936        -0.0000000000        81.5940104653
